 -----------------------------------------------------
 #p hf/6-31g sp int=superfinegrid scf=(fermi,novaracc)
 -----------------------------------------------------

 -------------------------------------------
 Gaussian input file generated by gausspimom
 -------------------------------------------
 Symbolic Z-matrix:
 Charge =     0 Multiplicity =     1

 SCF Done:  E(RHF) =  -75.9820090513     A.U. after   10 cycles
 Normal termination of Gaussian DV at Wed Jul  2 17:50:25 2025.

 -----------------------------------------------
 #p hf guess=read stable=opt chkbasis geom=check
 -----------------------------------------------

 -------------------------------------------------------------
 Gaussian input file generated by gausspimom (stability check)
 -------------------------------------------------------------
 Structure from the checkpoint file:  "test2-stab.chk"
 Charge =     0 Multiplicity =     1

                         Standard orientation:
 ---------------------------------------------------------------------
 Center     Atomic      Atomic             Coordinates (Angstroms)
 Number     Number       Type             X           Y           Z
 ---------------------------------------------------------------------
      1          8           0        0.000000   -0.000000    0.100857
      2          1           0       -0.000000    0.758602   -0.403427
      3          1           0       -0.000000   -0.758602   -0.403427
 ---------------------------------------------------------------------

 SCF Done:  E(RHF) =  -75.9820090513     A.U. after    1 cycles

 The electronic state is 1-A1.
 Alpha  occ. eigenvalues --      -20.54524      -1.37289      -0.75236      -0.55162      -0.50054
 Alpha virt. eigenvalues --        0.21654       0.31198       1.13169       1.16714       1.18839
 Alpha virt. eigenvalues --        1.21800       1.40649       1.67628

 Mulliken charges:
               1
     1  O   -0.800920
     2  H    0.400460
     3  H    0.400460
 Sum of Mulliken charges=  -0.00000

 Dipole moment (field-independent basis, Debye):
    X=             -0.0000    Y=              0.0000    Z=             -2.4584  Tot=              2.4584
 Quadrupole moment (field-independent basis, Debye-Ang):
   XX=             -7.1081   YY=             -3.9357   ZZ=             -6.3003
   XY=              0.0000   XZ=              0.0000   YZ=             -0.0000

 Normal termination of Gaussian DV at Wed Jul  2 17:50:26 2025.
