 ---------------------------------------------------------
 #P B3LYP/STO-3G SCF=(fermi,novaracc) Guess=Mix Stable=Opt
 ---------------------------------------------------------

 ------------------------------
 Initial Stability Check for H2
 ------------------------------
 Symbolic Z-matrix:
 Charge =     0 Multiplicity =     1

 SCF Done:  E(RB3LYP) =  -1.16541840985     A.U. after    9 cycles
 Normal termination of Gaussian DV at Sat Aug  2 15:32:57 2025.

 ----------------------------------------------------------------------
 #P B3LYP chkbasis Geom=AllCheck Guess=Read Opt Freq SCF=(fermi, novara
 cc) int=superfinegrid
 ----------------------------------------------------------------------

 Structure from the checkpoint file:  "H2_B3LYP_STO3G.chk"
 ------------------------------
 Initial Stability Check for H2
 ------------------------------
 Charge =     0 Multiplicity =     1

 SCF Done:  E(RB3LYP) =  -1.16541841005     A.U. after    1 cycles
 SCF Done:  E(RB3LYP) =  -1.16552942544     A.U. after    1 cycles
 SCF Done:  E(RB3LYP) =  -1.16553553699     A.U. after    1 cycles
 Optimization completed.
    -- Stationary point found.
 Normal termination of Gaussian DV at Sat Aug  2 15:33:04 2025.

 ------------------------------------------------------------------
 #P Geom=AllCheck Guess=TCheck SCRF=Check GenChk RB3LYP/ChkBas Freq
 ------------------------------------------------------------------

 Structure from the checkpoint file:  "H2_B3LYP_STO3G.chk"
 ------------------------------
 Initial Stability Check for H2
 ------------------------------
 Charge =     0 Multiplicity =     1

 SCF Done:  E(RB3LYP) =  -1.16553553699     A.U. after    1 cycles

 Isotropic polarizability for W=    0.000000        0.97 Bohr**3.
 End of Minotr FD prop file    721 does not exist.

                      1
                     SGG
 Frequencies --   5107.7779
 Red. masses --      1.0078
 Frc consts  --     15.4917
 IR Inten    --      0.0000

 - Thermochemistry -
 -------------------
 Temperature 298.150 Kelvin.  Pressure 1.00000 Atm.
 Atom     1 has atomic number  1 and mass   1.00783

 Molecular mass:     2.01565 amu.
 Principal axes and moments of inertia in atomic units:
                                 1                 2                 3
     Eigenvalues --            0.000000          0.954700          0.954700
           X                  -0.000000          1.000000         -0.000000
           Y                   0.000000          0.000000          1.000000
           Z                   1.000000          0.000000         -0.000000
 This molecule is a prolate symmetric top.
 Rotational symmetry number  2.
 Rotational temperature (Kelvin)     90.72367
 Rotational constant (GHZ):        1890.374451
 Zero-point vibrational energy      30551.3 (Joules/Mol)
                                    7.30194 (Kcal/Mol)
 Vibrational temperatures:   7348.95
          (Kelvin)

 Zero-point correction=                           0.011636 (Hartree/Particle)
 Thermal correction to Energy=                    0.013997
 Thermal correction to Enthalpy=                  0.014941
 Thermal correction to Gibbs Free Energy=         0.000186
 Sum of electronic and zero-point Energies=             -1.153899
 Sum of electronic and thermal Energies=                -1.151539
 Sum of electronic and thermal Enthalpies=              -1.150595
 Sum of electronic and thermal Free Energies=           -1.165349

                     E (Thermal)             CV                S
                      KCal/Mol        Cal/Mol-Kelvin    Cal/Mol-Kelvin
 Total                    8.783              4.968             31.054
 Electronic               0.000              0.000              0.000
 Translational            0.889              2.981             28.080
 Rotational               0.592              1.987              2.974
 Vibrational              7.302              0.000              0.000

 Optimization completed.
    -- Stationary point found.
 Normal termination of Gaussian DV at Sat Aug  2 15:33:07 2025.

 ----------------------------------------------------------------------
 #P B3LYP chkbasis Geom=AllCheck Guess=Read Stable=Opt SCF=(fermi,novar
 acc)
 ----------------------------------------------------------------------

 Structure from the checkpoint file:  "H2_B3LYP_STO3G-stab.chk"
 ------------------------------
 Initial Stability Check for H2
 ------------------------------
 Charge =     0 Multiplicity =     1

                         Standard orientation:
 ---------------------------------------------------------------------
 Center     Atomic      Atomic             Coordinates (Angstroms)
 Number     Number       Type             X           Y           Z
 ---------------------------------------------------------------------
      1          1           0        0.000000    0.000000    0.364189
      2          1           0        0.000000    0.000000   -0.364189
 ---------------------------------------------------------------------

 SCF Done:  E(RB3LYP) =  -1.16553553675     A.U. after    1 cycles

 The electronic state is 1-SGG.
 Alpha  occ. eigenvalues --       -0.41852
 Alpha virt. eigenvalues --        0.43876

 Mulliken charges:
               1
     1  H    0.000000
     2  H    0.000000
 Sum of Mulliken charges=   0.00000

 Dipole moment (field-independent basis, Debye):
    X=              0.0000    Y=              0.0000    Z=              0.0000  Tot=              0.0000
 Quadrupole moment (field-independent basis, Debye-Ang):
   XX=             -1.8457   YY=             -1.8457   ZZ=             -1.4358
   XY=              0.0000   XZ=             -0.0000   YZ=              0.0000

 Normal termination of Gaussian DV at Sat Aug  2 15:33:08 2025.
