 --------------------------------------------------------------
 #P B3LYP/6-31+G(d,p) SCF=(fermi,novaracc) Guess=Mix Stable=Opt
 --------------------------------------------------------------

 ------------------------------
 Initial Stability Check for H2
 ------------------------------
 Symbolic Z-matrix:
 Charge =     0 Multiplicity =     1

 SCF Done:  E(RB3LYP) =  -1.17853402689     A.U. after   12 cycles
 Normal termination of Gaussian DV at Sat Aug  2 15:33:37 2025.

 ----------------------------------------------------------------------
 #P B3LYP chkbasis Geom=AllCheck Guess=Read Opt Freq SCF=(fermi, novara
 cc) int=superfinegrid
 ----------------------------------------------------------------------

 Structure from the checkpoint file:  "H2_B3LYP_631pGdp.chk"
 ------------------------------
 Initial Stability Check for H2
 ------------------------------
 Charge =     0 Multiplicity =     1

 SCF Done:  E(RB3LYP) =  -1.17853402706     A.U. after    1 cycles
 SCF Done:  E(RB3LYP) =  -1.17853935538     A.U. after    4 cycles
 Optimization completed.
    -- Stationary point found.
 Normal termination of Gaussian DV at Sat Aug  2 15:33:43 2025.

 ------------------------------------------------------------------
 #P Geom=AllCheck Guess=TCheck SCRF=Check GenChk RB3LYP/ChkBas Freq
 ------------------------------------------------------------------

 Structure from the checkpoint file:  "H2_B3LYP_631pGdp.chk"
 ------------------------------
 Initial Stability Check for H2
 ------------------------------
 Charge =     0 Multiplicity =     1

 SCF Done:  E(RB3LYP) =  -1.17853935538     A.U. after    1 cycles

 Isotropic polarizability for W=    0.000000        2.51 Bohr**3.
 End of Minotr FD prop file    721 does not exist.

                      1
                     SGG
 Frequencies --   4466.4640
 Red. masses --      1.0078
 Frc consts  --     11.8458
 IR Inten    --      0.0000

 - Thermochemistry -
 -------------------
 Temperature 298.150 Kelvin.  Pressure 1.00000 Atm.
 Atom     1 has atomic number  1 and mass   1.00783

 Molecular mass:     2.01565 amu.
 Principal axes and moments of inertia in atomic units:
                                 1                 2                 3
     Eigenvalues --            0.000000          0.992716          0.992716
           X                  -0.000000          1.000000         -0.000000
           Y                   0.000000          0.000000          1.000000
           Z                   1.000000          0.000000         -0.000000
 This molecule is a prolate symmetric top.
 Rotational symmetry number  2.
 Rotational temperature (Kelvin)     87.24948
 Rotational constant (GHZ):        1817.984161
 Zero-point vibrational energy      26715.4 (Joules/Mol)
                                    6.38513 (Kcal/Mol)
 Vibrational temperatures:   6426.25
          (Kelvin)

 Zero-point correction=                           0.010175 (Hartree/Particle)
 Thermal correction to Energy=                    0.012536
 Thermal correction to Enthalpy=                  0.013480
 Thermal correction to Gibbs Free Energy=        -0.001312
 Sum of electronic and zero-point Energies=             -1.168364
 Sum of electronic and thermal Energies=                -1.166004
 Sum of electronic and thermal Enthalpies=              -1.165059
 Sum of electronic and thermal Free Energies=           -1.179851

                     E (Thermal)             CV                S
                      KCal/Mol        Cal/Mol-Kelvin    Cal/Mol-Kelvin
 Total                    7.866              4.968             31.132
 Electronic               0.000              0.000              0.000
 Translational            0.889              2.981             28.080
 Rotational               0.592              1.987              3.052
 Vibrational              6.385              0.000              0.000

 Optimization completed.
    -- Stationary point found.
 Normal termination of Gaussian DV at Sat Aug  2 15:33:46 2025.

 ----------------------------------------------------------------------
 #P B3LYP chkbasis Geom=AllCheck Guess=Read Stable=Opt SCF=(fermi,novar
 acc)
 ----------------------------------------------------------------------

 Structure from the checkpoint file:  "H2_B3LYP_631pGdp-stab.chk"
 ------------------------------
 Initial Stability Check for H2
 ------------------------------
 Charge =     0 Multiplicity =     1

                         Standard orientation:
 ---------------------------------------------------------------------
 Center     Atomic      Atomic             Coordinates (Angstroms)
 Number     Number       Type             X           Y           Z
 ---------------------------------------------------------------------
      1          1           0        0.000000    0.000000    0.371369
      2          1           0        0.000000    0.000000   -0.371369
 ---------------------------------------------------------------------

 SCF Done:  E(RB3LYP) =  -1.17853935531     A.U. after    1 cycles

 The electronic state is 1-SGG.
 Alpha  occ. eigenvalues --       -0.43159
 Alpha virt. eigenvalues --        0.10098       0.57698       1.03614       1.67470       1.67470
 Alpha virt. eigenvalues --        2.37898       2.61573       2.61573       4.15313

 Mulliken charges:
               1
     1  H    0.000000
     2  H    0.000000
 Sum of Mulliken charges=   0.00000

 Dipole moment (field-independent basis, Debye):
    X=              0.0000    Y=             -0.0000    Z=             -0.0000  Tot=              0.0000
 Quadrupole moment (field-independent basis, Debye-Ang):
   XX=             -2.0290   YY=             -2.0290   ZZ=             -1.5076
   XY=             -0.0000   XZ=             -0.0000   YZ=              0.0000

 Normal termination of Gaussian DV at Sat Aug  2 15:33:48 2025.
