 ---------------------------------------------------------
 #P B3LYP/genecp SCF=(fermi,novaracc) Guess=Mix Stable=Opt
 ---------------------------------------------------------

 ------------------------------
 Initial Stability Check for H2
 ------------------------------
 Symbolic Z-matrix:
 Charge =     0 Multiplicity =     1

 SCF Done:  E(RB3LYP) =  -1.18001838944     A.U. after   11 cycles
 Normal termination of Gaussian DV at Sat Aug  2 15:33:18 2025.

 ----------------------------------------------------------------------
 #P B3LYP chkbasis Geom=AllCheck Guess=Read Opt Freq SCF=(fermi, novara
 cc) int=superfinegrid
 ----------------------------------------------------------------------

 Structure from the checkpoint file:  "H2_B3LYP_genecp.chk"
 ------------------------------
 Initial Stability Check for H2
 ------------------------------
 Charge =     0 Multiplicity =     1

 SCF Done:  E(RB3LYP) =  -1.18001838935     A.U. after    1 cycles
 SCF Done:  E(RB3LYP) =  -1.18002386322     A.U. after    4 cycles
 Optimization completed.
    -- Stationary point found.
 Normal termination of Gaussian DV at Sat Aug  2 15:33:24 2025.

 ------------------------------------------------------------------
 #P Geom=AllCheck Guess=TCheck SCRF=Check GenChk RB3LYP/ChkBas Freq
 ------------------------------------------------------------------

 Structure from the checkpoint file:  "H2_B3LYP_genecp.chk"
 ------------------------------
 Initial Stability Check for H2
 ------------------------------
 Charge =     0 Multiplicity =     1

 SCF Done:  E(RB3LYP) =  -1.18002386322     A.U. after    1 cycles

 Isotropic polarizability for W=    0.000000        5.55 Bohr**3.
 End of Minotr FD prop file    721 does not exist.

                      1
                     SGG
 Frequencies --   4419.3099
 Red. masses --      1.0078
 Frc consts  --     11.5970
 IR Inten    --      0.0000

 - Thermochemistry -
 -------------------
 Temperature 298.150 Kelvin.  Pressure 1.00000 Atm.
 Atom     1 has atomic number  1 and mass   1.00783

 Molecular mass:     2.01565 amu.
 Principal axes and moments of inertia in atomic units:
                                 1                 2                 3
     Eigenvalues --            0.000000          0.992741          0.992741
           X                  -0.000000          1.000000         -0.000000
           Y                   0.000000          0.000000          1.000000
           Z                   1.000000          0.000000         -0.000000
 This molecule is a prolate symmetric top.
 Rotational symmetry number  2.
 Rotational temperature (Kelvin)     87.24727
 Rotational constant (GHZ):        1817.938016
 Zero-point vibrational energy      26433.3 (Joules/Mol)
                                    6.31772 (Kcal/Mol)
 Vibrational temperatures:   6358.40
          (Kelvin)

 Zero-point correction=                           0.010068 (Hartree/Particle)
 Thermal correction to Energy=                    0.012428
 Thermal correction to Enthalpy=                  0.013373
 Thermal correction to Gibbs Free Energy=        -0.001419
 Sum of electronic and zero-point Energies=             -1.169956
 Sum of electronic and thermal Energies=                -1.167595
 Sum of electronic and thermal Enthalpies=              -1.166651
 Sum of electronic and thermal Free Energies=           -1.181443

                     E (Thermal)             CV                S
                      KCal/Mol        Cal/Mol-Kelvin    Cal/Mol-Kelvin
 Total                    7.799              4.968             31.132
 Electronic               0.000              0.000              0.000
 Translational            0.889              2.981             28.080
 Rotational               0.592              1.987              3.052
 Vibrational              6.318              0.000              0.000

 Optimization completed.
    -- Stationary point found.
 Normal termination of Gaussian DV at Sat Aug  2 15:33:28 2025.

 ----------------------------------------------------------------------
 #P B3LYP chkbasis Geom=AllCheck Guess=Read Stable=Opt SCF=(fermi,novar
 acc)
 ----------------------------------------------------------------------

 Structure from the checkpoint file:  "H2_B3LYP_genecp-stab.chk"
 ------------------------------
 Initial Stability Check for H2
 ------------------------------
 Charge =     0 Multiplicity =     1

                         Standard orientation:
 ---------------------------------------------------------------------
 Center     Atomic      Atomic             Coordinates (Angstroms)
 Number     Number       Type             X           Y           Z
 ---------------------------------------------------------------------
      1          1           0        0.000000    0.000000    0.371374
      2          1           0        0.000000    0.000000   -0.371374
 ---------------------------------------------------------------------

 SCF Done:  E(RB3LYP) =  -1.18002386318     A.U. after    1 cycles

 The electronic state is 1-SGG.
 Alpha  occ. eigenvalues --       -0.43410
 Alpha virt. eigenvalues --        0.01487       0.01935       0.10668       0.11478       0.11478
 Alpha virt. eigenvalues --        0.21847       0.23471       0.23471       0.31678       0.33533
 Alpha virt. eigenvalues --        0.60616       0.65115       0.65115       0.75484       0.75484

 Mulliken charges:
               1
     1  H   -0.000000
     2  H   -0.000000
 Sum of Mulliken charges=  -0.00000

 Dipole moment (field-independent basis, Debye):
    X=              0.0000    Y=              0.0000    Z=              0.0000  Tot=              0.0000
 Quadrupole moment (field-independent basis, Debye-Ang):
   XX=             -2.1139   YY=             -2.1139   ZZ=             -1.5142
   XY=              0.0000   XZ=             -0.0000   YZ=              0.0000

 Normal termination of Gaussian DV at Sat Aug  2 15:33:30 2025.
