 -------------------------------------------------------------
 #P CAM-B3LYP/genecp SCF=(fermi,novaracc) Guess=Mix Stable=Opt
 -------------------------------------------------------------

 ------------------------------
 Initial Stability Check for H2
 ------------------------------
 Symbolic Z-matrix:
 Charge =     0 Multiplicity =     1

 SCF Done:  E(RCAM-B3LYP) =  -1.17158893064     A.U. after   12 cycles
 Normal termination of Gaussian DV at Sat Aug  2 15:34:19 2025.

 ----------------------------------------------------------------------
 #P CAM-B3LYP chkbasis Geom=AllCheck Guess=Read Opt Freq SCF=(fermi, no
 varacc) int=superfinegrid
 ----------------------------------------------------------------------

 Structure from the checkpoint file:  "H2_CAMB3LYP_genecp.chk"
 ------------------------------
 Initial Stability Check for H2
 ------------------------------
 Charge =     0 Multiplicity =     1

 SCF Done:  E(RCAM-B3LYP) =  -1.17158893079     A.U. after    1 cycles
 SCF Done:  E(RCAM-B3LYP) =  -1.17160857067     A.U. after    5 cycles
 Optimization completed.
    -- Stationary point found.
 Normal termination of Gaussian DV at Sat Aug  2 15:34:26 2025.

 ----------------------------------------------------------------------
 #P Geom=AllCheck Guess=TCheck SCRF=Check GenChk RCAM-B3LYP/ChkBas Freq
 ----------------------------------------------------------------------

 Structure from the checkpoint file:  "H2_CAMB3LYP_genecp.chk"
 ------------------------------
 Initial Stability Check for H2
 ------------------------------
 Charge =     0 Multiplicity =     1

 SCF Done:  E(RCAM-B3LYP) =  -1.17160857067     A.U. after    1 cycles

 Isotropic polarizability for W=    0.000000        5.62 Bohr**3.
 End of Minotr FD prop file    721 does not exist.

                      1
                     SGG
 Frequencies --   4410.1872
 Red. masses --      1.0078
 Frc consts  --     11.5491
 IR Inten    --      0.0000

 - Thermochemistry -
 -------------------
 Temperature 298.150 Kelvin.  Pressure 1.00000 Atm.
 Atom     1 has atomic number  1 and mass   1.00783

 Molecular mass:     2.01565 amu.
 Principal axes and moments of inertia in atomic units:
                                 1                 2                 3
     Eigenvalues --            0.000000          0.999360          0.999360
           X                  -0.000000          1.000000         -0.000000
           Y                   0.000000          0.000000          1.000000
           Z                   1.000000          0.000000         -0.000000
 This molecule is a prolate symmetric top.
 Rotational symmetry number  2.
 Rotational temperature (Kelvin)     86.66942
 Rotational constant (GHZ):        1805.897551
 Zero-point vibrational energy      26378.8 (Joules/Mol)
                                    6.30468 (Kcal/Mol)
 Vibrational temperatures:   6345.28
          (Kelvin)

 Zero-point correction=                           0.010047 (Hartree/Particle)
 Thermal correction to Energy=                    0.012408
 Thermal correction to Enthalpy=                  0.013352
 Thermal correction to Gibbs Free Energy=        -0.001446
 Sum of electronic and zero-point Energies=             -1.161561
 Sum of electronic and thermal Energies=                -1.159201
 Sum of electronic and thermal Enthalpies=              -1.158257
 Sum of electronic and thermal Free Energies=           -1.173055

                     E (Thermal)             CV                S
                      KCal/Mol        Cal/Mol-Kelvin    Cal/Mol-Kelvin
 Total                    7.786              4.968             31.145
 Electronic               0.000              0.000              0.000
 Translational            0.889              2.981             28.080
 Rotational               0.592              1.987              3.065
 Vibrational              6.305              0.000              0.000

 Optimization completed.
    -- Stationary point found.
 Normal termination of Gaussian DV at Sat Aug  2 15:34:30 2025.

 ----------------------------------------------------------------------
 #P CAM-B3LYP chkbasis Geom=AllCheck Guess=Read Stable=Opt SCF=(fermi,n
 ovaracc)
 ----------------------------------------------------------------------

 Structure from the checkpoint file:  "H2_CAMB3LYP_genecp-stab.chk"
 ------------------------------
 Initial Stability Check for H2
 ------------------------------
 Charge =     0 Multiplicity =     1

                         Standard orientation:
 ---------------------------------------------------------------------
 Center     Atomic      Atomic             Coordinates (Angstroms)
 Number     Number       Type             X           Y           Z
 ---------------------------------------------------------------------
      1          1           0        0.000000    0.000000    0.372610
      2          1           0        0.000000    0.000000   -0.372610
 ---------------------------------------------------------------------

 SCF Done:  E(RCAM-B3LYP) =  -1.17160857071     A.U. after    1 cycles

 The electronic state is 1-SGG.
 Alpha  occ. eigenvalues --       -0.49966
 Alpha virt. eigenvalues --        0.03443       0.03558       0.13789       0.15251       0.15251
 Alpha virt. eigenvalues --        0.24669       0.26158       0.26158       0.35556       0.36687
 Alpha virt. eigenvalues --        0.65141       0.70242       0.70242       0.80900       0.80900

 Mulliken charges:
               1
     1  H    0.000000
     2  H    0.000000
 Sum of Mulliken charges=   0.00000

 Dipole moment (field-independent basis, Debye):
    X=             -0.0000    Y=             -0.0000    Z=              0.0000  Tot=              0.0000
 Quadrupole moment (field-independent basis, Debye-Ang):
   XX=             -2.1462   YY=             -2.1462   ZZ=             -1.5275
   XY=              0.0000   XZ=             -0.0000   YZ=              0.0000

 Normal termination of Gaussian DV at Sat Aug  2 15:34:32 2025.
