 -------------------------------------------------------------
 #P CAM-B3LYP/STO-3G SCF=(fermi,novaracc) Guess=Mix Stable=Opt
 -------------------------------------------------------------

 ------------------------------
 Initial Stability Check for H2
 ------------------------------
 Symbolic Z-matrix:
 Charge =     0 Multiplicity =     1

 SCF Done:  E(RCAM-B3LYP) =  -1.15616386202     A.U. after    8 cycles
 Normal termination of Gaussian DV at Sat Aug  2 15:33:58 2025.

 ----------------------------------------------------------------------
 #P CAM-B3LYP chkbasis Geom=AllCheck Guess=Read Opt Freq SCF=(fermi, no
 varacc) int=superfinegrid
 ----------------------------------------------------------------------

 Structure from the checkpoint file:  "H2_CAMB3LYP_STO3G.chk"
 ------------------------------
 Initial Stability Check for H2
 ------------------------------
 Charge =     0 Multiplicity =     1

 SCF Done:  E(RCAM-B3LYP) =  -1.15616386219     A.U. after    1 cycles
 SCF Done:  E(RCAM-B3LYP) =  -1.15630110043     A.U. after    1 cycles
 SCF Done:  E(RCAM-B3LYP) =  -1.15630980396     A.U. after    1 cycles
 Optimization completed.
    -- Stationary point found.
 Normal termination of Gaussian DV at Sat Aug  2 15:34:05 2025.

 ----------------------------------------------------------------------
 #P Geom=AllCheck Guess=TCheck SCRF=Check GenChk RCAM-B3LYP/ChkBas Freq
 ----------------------------------------------------------------------

 Structure from the checkpoint file:  "H2_CAMB3LYP_STO3G.chk"
 ------------------------------
 Initial Stability Check for H2
 ------------------------------
 Charge =     0 Multiplicity =     1

 SCF Done:  E(RCAM-B3LYP) =  -1.15630980396     A.U. after    1 cycles

 Isotropic polarizability for W=    0.000000        0.97 Bohr**3.
 End of Minotr FD prop file    721 does not exist.

                      1
                     SGG
 Frequencies --   5148.7872
 Red. masses --      1.0078
 Frc consts  --     15.7415
 IR Inten    --      0.0000

 - Thermochemistry -
 -------------------
 Temperature 298.150 Kelvin.  Pressure 1.00000 Atm.
 Atom     1 has atomic number  1 and mass   1.00783

 Molecular mass:     2.01565 amu.
 Principal axes and moments of inertia in atomic units:
                                 1                 2                 3
     Eigenvalues --            0.000000          0.951393          0.951393
           X                  -0.000000          1.000000         -0.000000
           Y                   0.000000          0.000000          1.000000
           Z                   1.000000          0.000000         -0.000000
 This molecule is a prolate symmetric top.
 Rotational symmetry number  2.
 Rotational temperature (Kelvin)     91.03902
 Rotational constant (GHZ):        1896.945350
 Zero-point vibrational energy      30796.6 (Joules/Mol)
                                    7.36056 (Kcal/Mol)
 Vibrational temperatures:   7407.96
          (Kelvin)

 Zero-point correction=                           0.011730 (Hartree/Particle)
 Thermal correction to Energy=                    0.014090
 Thermal correction to Enthalpy=                  0.015034
 Thermal correction to Gibbs Free Energy=         0.000283
 Sum of electronic and zero-point Energies=             -1.144580
 Sum of electronic and thermal Energies=                -1.142220
 Sum of electronic and thermal Enthalpies=              -1.141275
 Sum of electronic and thermal Free Energies=           -1.156027

                     E (Thermal)             CV                S
                      KCal/Mol        Cal/Mol-Kelvin    Cal/Mol-Kelvin
 Total                    8.842              4.968             31.047
 Electronic               0.000              0.000              0.000
 Translational            0.889              2.981             28.080
 Rotational               0.592              1.987              2.967
 Vibrational              7.361              0.000              0.000

 Optimization completed.
    -- Stationary point found.
 Normal termination of Gaussian DV at Sat Aug  2 15:34:07 2025.

 ----------------------------------------------------------------------
 #P CAM-B3LYP chkbasis Geom=AllCheck Guess=Read Stable=Opt SCF=(fermi,n
 ovaracc)
 ----------------------------------------------------------------------

 Structure from the checkpoint file:  "H2_CAMB3LYP_STO3G-stab.chk"
 ------------------------------
 Initial Stability Check for H2
 ------------------------------
 Charge =     0 Multiplicity =     1

                         Standard orientation:
 ---------------------------------------------------------------------
 Center     Atomic      Atomic             Coordinates (Angstroms)
 Number     Number       Type             X           Y           Z
 ---------------------------------------------------------------------
      1          1           0        0.000000    0.000000    0.363558
      2          1           0        0.000000    0.000000   -0.363558
 ---------------------------------------------------------------------

 SCF Done:  E(RCAM-B3LYP) =  -1.15630980377     A.U. after    1 cycles

 The electronic state is 1-SGG.
 Alpha  occ. eigenvalues --       -0.48344
 Alpha virt. eigenvalues --        0.51387

 Mulliken charges:
               1
     1  H    0.000000
     2  H    0.000000
 Sum of Mulliken charges=   0.00000

 Dipole moment (field-independent basis, Debye):
    X=              0.0000    Y=              0.0000    Z=             -0.0000  Tot=              0.0000
 Quadrupole moment (field-independent basis, Debye-Ang):
   XX=             -1.8454   YY=             -1.8454   ZZ=             -1.4367
   XY=              0.0000   XZ=             -0.0000   YZ=              0.0000

 Normal termination of Gaussian DV at Sat Aug  2 15:34:09 2025.
