 ----------------------------------------------------------------------
 #P CAM-B3LYP/6-31+G(d,p) SCF=(fermi,novaracc) Guess=Mix Stable=Opt scf
 =(qc,conver=8)
 ----------------------------------------------------------------------

 ------------------------------
 Initial Stability Check for H2
 ------------------------------
 Symbolic Z-matrix:
 Charge =     0 Multiplicity =     1

 SCF Done:  E(RCAM-B3LYP) =  -1.17004036967     a.u. after    6 cycles
 Normal termination of Gaussian DV at Mon Aug  4 07:56:04 2025.

 ----------------------------------------------------------------------
 #P CAM-B3LYP chkbasis Geom=AllCheck Guess=Read Opt Freq SCF=(fermi, no
 varacc) int=superfinegrid scf=(qc,conver=8)
 ----------------------------------------------------------------------

 Structure from the checkpoint file:  "H2_CAMB3LYP_631pGdp.chk"
 ------------------------------
 Initial Stability Check for H2
 ------------------------------
 Charge =     0 Multiplicity =     1

 SCF Done:  E(RCAM-B3LYP) =  -1.17004036983     a.u. after    1 cycles
 SCF Done:  E(RCAM-B3LYP) =  -1.17005773141     a.u. after    3 cycles
 Optimization completed.
    -- Stationary point found.
 Normal termination of Gaussian DV at Mon Aug  4 07:56:13 2025.

 ----------------------------------------------------------------------
 #P Geom=AllCheck Guess=TCheck SCRF=Check GenChk RCAM-B3LYP/ChkBas Freq
 ----------------------------------------------------------------------

 Structure from the checkpoint file:  "H2_CAMB3LYP_631pGdp.chk"
 ------------------------------
 Initial Stability Check for H2
 ------------------------------
 Charge =     0 Multiplicity =     1

 SCF Done:  E(RCAM-B3LYP) =  -1.17005773141     a.u. after    1 cycles

 Isotropic polarizability for W=    0.000000        2.53 Bohr**3.
 End of Minotr FD prop file    721 does not exist.

                      1
                     SGG
 Frequencies --   4461.8666
 Red. masses --      1.0078
 Frc consts  --     11.8214
 IR Inten    --      0.0000

 - Thermochemistry -
 -------------------
 Temperature 298.150 Kelvin.  Pressure 1.00000 Atm.
 Atom     1 has atomic number  1 and mass   1.00783

 Molecular mass:     2.01565 amu.
 Principal axes and moments of inertia in atomic units:
                                 1                 2                 3
     Eigenvalues --            0.000000          0.998664          0.998664
           X                  -0.000000          1.000000         -0.000000
           Y                   0.000000          0.000000          1.000000
           Z                   1.000000          0.000000         -0.000000
 This molecule is a prolate symmetric top.
 Rotational symmetry number  2.
 Rotational temperature (Kelvin)     86.72980
 Rotational constant (GHZ):        1807.155623
 Zero-point vibrational energy      26687.9 (Joules/Mol)
                                    6.37856 (Kcal/Mol)
 Vibrational temperatures:   6419.63
          (Kelvin)

 Zero-point correction=                           0.010165 (Hartree/Particle)
 Thermal correction to Energy=                    0.012525
 Thermal correction to Enthalpy=                  0.013470
 Thermal correction to Gibbs Free Energy=        -0.001328
 Sum of electronic and zero-point Energies=             -1.159893
 Sum of electronic and thermal Energies=                -1.157532
 Sum of electronic and thermal Enthalpies=              -1.156588
 Sum of electronic and thermal Free Energies=           -1.171386

                     E (Thermal)             CV                S
                      KCal/Mol        Cal/Mol-Kelvin    Cal/Mol-Kelvin
 Total                    7.860              4.968             31.144
 Electronic               0.000              0.000              0.000
 Translational            0.889              2.981             28.080
 Rotational               0.592              1.987              3.064
 Vibrational              6.379              0.000              0.000

 Optimization completed.
    -- Stationary point found.
 Normal termination of Gaussian DV at Mon Aug  4 07:56:24 2025.

 ----------------------------------------------------------------------
 #P CAM-B3LYP chkbasis Geom=AllCheck Guess=Read Stable=Opt SCF=(fermi,n
 ovaracc) scf=(qc,conver=8)
 ----------------------------------------------------------------------

 Structure from the checkpoint file:  "H2_CAMB3LYP_631pGdp-stab.chk"
 ------------------------------
 Initial Stability Check for H2
 ------------------------------
 Charge =     0 Multiplicity =     1

                         Standard orientation:
 ---------------------------------------------------------------------
 Center     Atomic      Atomic             Coordinates (Angstroms)
 Number     Number       Type             X           Y           Z
 ---------------------------------------------------------------------
      1          1           0        0.000000    0.000000    0.372480
      2          1           0        0.000000    0.000000   -0.372480
 ---------------------------------------------------------------------

 SCF Done:  E(RCAM-B3LYP) =  -1.17005773141     a.u. after    1 cycles

 The electronic state is 1-SGG.
 Alpha  occ. eigenvalues --       -0.49711
 Alpha virt. eigenvalues --        0.15365       0.64007       1.10643       1.75051       1.75051
 Alpha virt. eigenvalues --        2.45298       2.69111       2.69111       4.22255

 Mulliken charges:
               1
     1  H   -0.000000
     2  H   -0.000000
 Sum of Mulliken charges=  -0.00000

 Dipole moment (field-independent basis, Debye):
    X=             -0.0000    Y=              0.0000    Z=             -0.0000  Tot=              0.0000
 Quadrupole moment (field-independent basis, Debye-Ang):
   XX=             -2.0515   YY=             -2.0515   ZZ=             -1.5233
   XY=              0.0000   XZ=             -0.0000   YZ=              0.0000

 Normal termination of Gaussian DV at Mon Aug  4 07:56:26 2025.
