 ------------------------------------------------------
 #P HF/STO-3G SCF=(fermi,novaracc) Guess=Mix Stable=Opt
 ------------------------------------------------------

 ------------------------------
 Initial Stability Check for H2
 ------------------------------
 Symbolic Z-matrix:
 Charge =     0 Multiplicity =     1

 SCF Done:  E(RHF) =  -1.11675930751     A.U. after    6 cycles
 Normal termination of Gaussian DV at Sat Aug  2 15:34:39 2025.

 ----------------------------------------------------------------------
 #P HF chkbasis Geom=AllCheck Guess=Read Opt Freq SCF=(fermi, novaracc)
  int=superfinegrid
 ----------------------------------------------------------------------

 Structure from the checkpoint file:  "H2_HF_STO3G.chk"
 ------------------------------
 Initial Stability Check for H2
 ------------------------------
 Charge =     0 Multiplicity =     1

 SCF Done:  E(RHF) =  -1.11675930751     A.U. after    1 cycles
 SCF Done:  E(RHF) =  -1.11741240166     A.U. after    1 cycles
 SCF Done:  E(RHF) =  -1.11750588511     A.U. after    1 cycles
 Optimization completed.
    -- Stationary point found.
 Normal termination of Gaussian DV at Sat Aug  2 15:34:45 2025.

 ---------------------------------------------------------------
 #P Geom=AllCheck Guess=TCheck SCRF=Check GenChk RHF/ChkBas Freq
 ---------------------------------------------------------------

 Structure from the checkpoint file:  "H2_HF_STO3G.chk"
 ------------------------------
 Initial Stability Check for H2
 ------------------------------
 Charge =     0 Multiplicity =     1

 SCF Done:  E(RHF) =  -1.11750588511     A.U. after    1 cycles

 Isotropic polarizability for W=    0.000000        0.96 Bohr**3.
 FullF1:  Do perturbations      1 to       6.

                      1
                     SGG
 Frequencies --   5481.1263
 Red. masses --      1.0078
 Frc consts  --     17.8392
 IR Inten    --      0.0000
 Raman Activ --     20.6322

 - Thermochemistry -
 -------------------
 Temperature 298.150 Kelvin.  Pressure 1.00000 Atm.
 Atom     1 has atomic number  1 and mass   1.00783

 Molecular mass:     2.01565 amu.
 Principal axes and moments of inertia in atomic units:
                                 1                 2                 3
     Eigenvalues --            0.000000          0.912855          0.912855
           X                  -0.000000          1.000000         -0.000000
           Y                   0.000000          0.000000          1.000000
           Z                   1.000000          0.000000         -0.000000
 This molecule is a prolate symmetric top.
 Rotational symmetry number  2.
 Rotational temperature (Kelvin)     94.88244
 Rotational constant (GHZ):        1977.029047
 Zero-point vibrational energy      32784.4 (Joules/Mol)
                                    7.83566 (Kcal/Mol)
 Vibrational temperatures:   7886.12
          (Kelvin)

 Zero-point correction=                           0.012487 (Hartree/Particle)
 Thermal correction to Energy=                    0.014847
 Thermal correction to Enthalpy=                  0.015792
 Thermal correction to Gibbs Free Energy=         0.001079
 Sum of electronic and zero-point Energies=             -1.105019
 Sum of electronic and thermal Energies=                -1.102658
 Sum of electronic and thermal Enthalpies=              -1.101714
 Sum of electronic and thermal Free Energies=           -1.116427

                     E (Thermal)             CV                S
                      KCal/Mol        Cal/Mol-Kelvin    Cal/Mol-Kelvin
 Total                    9.317              4.968             30.965
 Electronic               0.000              0.000              0.000
 Translational            0.889              2.981             28.080
 Rotational               0.592              1.987              2.885
 Vibrational              7.836              0.000              0.000

 Optimization completed.
    -- Stationary point found.
 Normal termination of Gaussian DV at Sat Aug  2 15:34:48 2025.

 ----------------------------------------------------------------------
 #P HF chkbasis Geom=AllCheck Guess=Read Stable=Opt SCF=(fermi,novaracc
 )
 ----------------------------------------------------------------------

 Structure from the checkpoint file:  "H2_HF_STO3G-stab.chk"
 ------------------------------
 Initial Stability Check for H2
 ------------------------------
 Charge =     0 Multiplicity =     1

                         Standard orientation:
 ---------------------------------------------------------------------
 Center     Atomic      Atomic             Coordinates (Angstroms)
 Number     Number       Type             X           Y           Z
 ---------------------------------------------------------------------
      1          1           0        0.000000    0.000000    0.356118
      2          1           0        0.000000    0.000000   -0.356118
 ---------------------------------------------------------------------

 SCF Done:  E(RHF) =  -1.11750588511     A.U. after    1 cycles

 The electronic state is 1-SGG.
 Alpha  occ. eigenvalues --       -0.59022
 Alpha virt. eigenvalues --        0.70064

 Mulliken charges:
               1
     1  H   -0.000000
     2  H   -0.000000
 Sum of Mulliken charges=  -0.00000

 Dipole moment (field-independent basis, Debye):
    X=             -0.0000    Y=              0.0000    Z=              0.0000  Tot=              0.0000
 Quadrupole moment (field-independent basis, Debye-Ang):
   XX=             -1.8430   YY=             -1.8430   ZZ=             -1.4474
   XY=              0.0000   XZ=             -0.0000   YZ=              0.0000

 Normal termination of Gaussian DV at Sat Aug  2 15:34:49 2025.
