 ------------------------------------------------------
 #P HF/genecp SCF=(fermi,novaracc) Guess=Mix Stable=Opt
 ------------------------------------------------------

 ------------------------------
 Initial Stability Check for H2
 ------------------------------
 Symbolic Z-matrix:
 Charge =     0 Multiplicity =     1

 SCF Done:  E(RHF) =  -1.13303397643     A.U. after    9 cycles
 Normal termination of Gaussian DV at Sat Aug  2 15:36:21 2025.

 ----------------------------------------------------------------------
 #P HF chkbasis Geom=AllCheck Guess=Read Opt Freq SCF=(fermi, novaracc)
  int=superfinegrid
 ----------------------------------------------------------------------

 Structure from the checkpoint file:  "H2_HF_genecp.chk"
 ------------------------------
 Initial Stability Check for H2
 ------------------------------
 Charge =     0 Multiplicity =     1

 SCF Done:  E(RHF) =  -1.13303397643     A.U. after    1 cycles
 SCF Done:  E(RHF) =  -1.13305584011     A.U. after    5 cycles
 Optimization completed.
    -- Stationary point found.
 Normal termination of Gaussian DV at Sat Aug  2 15:36:28 2025.

 ---------------------------------------------------------------
 #P Geom=AllCheck Guess=TCheck SCRF=Check GenChk RHF/ChkBas Freq
 ---------------------------------------------------------------

 Structure from the checkpoint file:  "H2_HF_genecp.chk"
 ------------------------------
 Initial Stability Check for H2
 ------------------------------
 Charge =     0 Multiplicity =     1

 SCF Done:  E(RHF) =  -1.13305584011     A.U. after    1 cycles

 Isotropic polarizability for W=    0.000000        5.18 Bohr**3.
 FullF1:  Do perturbations      1 to       6.

                      1
                     SGG
 Frequencies --   4585.7842
 Red. masses --      1.0078
 Frc consts  --     12.4871
 IR Inten    --      0.0000
 Raman Activ --    170.1686

 - Thermochemistry -
 -------------------
 Temperature 298.150 Kelvin.  Pressure 1.00000 Atm.
 Atom     1 has atomic number  1 and mass   1.00783

 Molecular mass:     2.01565 amu.
 Principal axes and moments of inertia in atomic units:
                                 1                 2                 3
     Eigenvalues --            0.000000          0.970564          0.970564
           X                  -0.000000          1.000000         -0.000000
           Y                   0.000000          0.000000          1.000000
           Z                   1.000000          0.000000         -0.000000
 This molecule is a prolate symmetric top.
 Rotational symmetry number  2.
 Rotational temperature (Kelvin)     89.24083
 Rotational constant (GHZ):        1859.477009
 Zero-point vibrational energy      27429.1 (Joules/Mol)
                                    6.55571 (Kcal/Mol)
 Vibrational temperatures:   6597.92
          (Kelvin)

 Zero-point correction=                           0.010447 (Hartree/Particle)
 Thermal correction to Energy=                    0.012808
 Thermal correction to Enthalpy=                  0.013752
 Thermal correction to Gibbs Free Energy=        -0.001019
 Sum of electronic and zero-point Energies=             -1.122609
 Sum of electronic and thermal Energies=                -1.120248
 Sum of electronic and thermal Enthalpies=              -1.119304
 Sum of electronic and thermal Free Energies=           -1.134074

                     E (Thermal)             CV                S
                      KCal/Mol        Cal/Mol-Kelvin    Cal/Mol-Kelvin
 Total                    8.037              4.968             31.087
 Electronic               0.000              0.000              0.000
 Translational            0.889              2.981             28.080
 Rotational               0.592              1.987              3.007
 Vibrational              6.556              0.000              0.000

 Optimization completed.
    -- Stationary point found.
 Normal termination of Gaussian DV at Sat Aug  2 15:36:32 2025.

 ----------------------------------------------------------------------
 #P HF chkbasis Geom=AllCheck Guess=Read Stable=Opt SCF=(fermi,novaracc
 )
 ----------------------------------------------------------------------

 Structure from the checkpoint file:  "H2_HF_genecp-stab.chk"
 ------------------------------
 Initial Stability Check for H2
 ------------------------------
 Charge =     0 Multiplicity =     1

                         Standard orientation:
 ---------------------------------------------------------------------
 Center     Atomic      Atomic             Coordinates (Angstroms)
 Number     Number       Type             X           Y           Z
 ---------------------------------------------------------------------
      1          1           0        0.000000    0.000000    0.367202
      2          1           0        0.000000    0.000000   -0.367202
 ---------------------------------------------------------------------

 SCF Done:  E(RHF) =  -1.13305584011     A.U. after    1 cycles

 The electronic state is 1-SGG.
 Alpha  occ. eigenvalues --       -0.59639
 Alpha virt. eigenvalues --        0.05265       0.05303       0.19108       0.20907       0.20907
 Alpha virt. eigenvalues --        0.28472       0.29748       0.29748       0.41683       0.42184
 Alpha virt. eigenvalues --        0.73603       0.79179       0.79179       0.88430       0.88430

 Mulliken charges:
               1
     1  H   -0.000000
     2  H   -0.000000
 Sum of Mulliken charges=  -0.00000

 Dipole moment (field-independent basis, Debye):
    X=             -0.0000    Y=             -0.0000    Z=              0.0000  Tot=              0.0000
 Quadrupole moment (field-independent basis, Debye-Ang):
   XX=             -2.0870   YY=             -2.0870   ZZ=             -1.4258
   XY=              0.0000   XZ=             -0.0000   YZ=              0.0000

 Normal termination of Gaussian DV at Sat Aug  2 15:36:33 2025.
