 -----------------------------------------------------------
 #P HF/6-31+G(d,p) SCF=(fermi,novaracc) Guess=Mix Stable=Opt
 -----------------------------------------------------------

 ------------------------------
 Initial Stability Check for H2
 ------------------------------
 Symbolic Z-matrix:
 Charge =     0 Multiplicity =     1

 SCF Done:  E(RHF) =  -1.13129385113     A.U. after    7 cycles
 Normal termination of Gaussian DV at Sat Aug  2 15:34:59 2025.

 ----------------------------------------------------------------------
 #P HF chkbasis Geom=AllCheck Guess=Read Opt Freq SCF=(fermi, novaracc)
  int=superfinegrid
 ----------------------------------------------------------------------

 Structure from the checkpoint file:  "H2_HF_631pGdp.chk"
 ------------------------------
 Initial Stability Check for H2
 ------------------------------
 Charge =     0 Multiplicity =     1

 SCF Done:  E(RHF) =  -1.13129385113     A.U. after    1 cycles
 SCF Done:  E(RHF) =  -1.13133356793     A.U. after    4 cycles
 Optimization completed.
    -- Stationary point found.
 Normal termination of Gaussian DV at Sat Aug  2 15:35:05 2025.

 ---------------------------------------------------------------
 #P Geom=AllCheck Guess=TCheck SCRF=Check GenChk RHF/ChkBas Freq
 ---------------------------------------------------------------

 Structure from the checkpoint file:  "H2_HF_631pGdp.chk"
 ------------------------------
 Initial Stability Check for H2
 ------------------------------
 Charge =     0 Multiplicity =     1

 SCF Done:  E(RHF) =  -1.13133356793     A.U. after    1 cycles

 Isotropic polarizability for W=    0.000000        2.48 Bohr**3.
 FullF1:  Do perturbations      1 to       6.

                      1
                     SGG
 Frequencies --   4637.5343
 Red. masses --      1.0078
 Frc consts  --     12.7706
 IR Inten    --      0.0000
 Raman Activ --     84.2883

 - Thermochemistry -
 -------------------
 Temperature 298.150 Kelvin.  Pressure 1.00000 Atm.
 Atom     1 has atomic number  1 and mass   1.00783

 Molecular mass:     2.01565 amu.
 Principal axes and moments of inertia in atomic units:
                                 1                 2                 3
     Eigenvalues --           -0.000000          0.965288          0.965288
           X                  -0.000000          1.000000         -0.000000
           Y                   0.000000          0.000000          1.000000
           Z                   1.000000          0.000000         -0.000000
 This molecule is a prolate symmetric top.
 Rotational symmetry number  2.
 Rotational temperature (Kelvin)     89.72857
 Rotational constant (GHZ):        1869.640027
 Zero-point vibrational energy      27738.6 (Joules/Mol)
                                    6.62969 (Kcal/Mol)
 Vibrational temperatures:   6672.38
          (Kelvin)

 Zero-point correction=                           0.010565 (Hartree/Particle)
 Thermal correction to Energy=                    0.012926
 Thermal correction to Enthalpy=                  0.013870
 Thermal correction to Gibbs Free Energy=        -0.000896
 Sum of electronic and zero-point Energies=             -1.120768
 Sum of electronic and thermal Energies=                -1.118408
 Sum of electronic and thermal Enthalpies=              -1.117464
 Sum of electronic and thermal Free Energies=           -1.132229

                     E (Thermal)             CV                S
                      KCal/Mol        Cal/Mol-Kelvin    Cal/Mol-Kelvin
 Total                    8.111              4.968             31.076
 Electronic               0.000              0.000              0.000
 Translational            0.889              2.981             28.080
 Rotational               0.592              1.987              2.996
 Vibrational              6.630              0.000              0.000

 Optimization completed.
    -- Stationary point found.
 Normal termination of Gaussian DV at Sat Aug  2 15:35:09 2025.

 ----------------------------------------------------------------------
 #P HF chkbasis Geom=AllCheck Guess=Read Stable=Opt SCF=(fermi,novaracc
 )
 ----------------------------------------------------------------------

 Structure from the checkpoint file:  "H2_HF_631pGdp-stab.chk"
 ------------------------------
 Initial Stability Check for H2
 ------------------------------
 Charge =     0 Multiplicity =     1

                         Standard orientation:
 ---------------------------------------------------------------------
 Center     Atomic      Atomic             Coordinates (Angstroms)
 Number     Number       Type             X           Y           Z
 ---------------------------------------------------------------------
      1          1           0        0.000000    0.000000    0.366203
      2          1           0        0.000000    0.000000   -0.366203
 ---------------------------------------------------------------------

 SCF Done:  E(RHF) =  -1.13133356793     A.U. after    1 cycles

 The electronic state is 1-SGG.
 Alpha  occ. eigenvalues --       -0.59727
 Alpha virt. eigenvalues --        0.24149       0.76799       1.31727       1.95899       1.95899
 Alpha virt. eigenvalues --        2.72114       2.94000       2.94000       4.57504

 Mulliken charges:
               1
     1  H    0.000000
     2  H    0.000000
 Sum of Mulliken charges=   0.00000

 Dipole moment (field-independent basis, Debye):
    X=              0.0000    Y=              0.0000    Z=              0.0000  Tot=              0.0000
 Quadrupole moment (field-independent basis, Debye-Ang):
   XX=             -2.0497   YY=             -2.0497   ZZ=             -1.5202
   XY=             -0.0000   XZ=             -0.0000   YZ=              0.0000

 Normal termination of Gaussian DV at Sat Aug  2 15:35:10 2025.
