 ------------------------------------------------------------------
 #P CAM-B3LYP/6-31+G(d,p) SCF=(fermi,novaracc) Guess=Mix Stable=Opt
 ------------------------------------------------------------------

 -------------------------------
 Initial Stability Check for H2O
 -------------------------------
 Symbolic Z-matrix:
 Charge =     0 Multiplicity =     1

 SCF Done:  E(RCAM-B3LYP) =  -76.3993926608     A.U. after   11 cycles
 Normal termination of Gaussian DV at Sat Aug  2 15:32:17 2025.

 ----------------------------------------------------------------------
 #P CAM-B3LYP chkbasis Geom=AllCheck Guess=Read Opt Freq SCF=(fermi, no
 varacc) int=superfinegrid
 ----------------------------------------------------------------------

 Structure from the checkpoint file:  "H2O_CAMB3LYP_631pGdp.chk"
 -------------------------------
 Initial Stability Check for H2O
 -------------------------------
 Charge =     0 Multiplicity =     1

 SCF Done:  E(RCAM-B3LYP) =  -76.3993927334     A.U. after    1 cycles
 SCF Done:  E(RCAM-B3LYP) =  -76.4054974313     A.U. after    9 cycles
 SCF Done:  E(RCAM-B3LYP) =  -76.4057171393     A.U. after    8 cycles
 SCF Done:  E(RCAM-B3LYP) =  -76.4057186548     A.U. after    7 cycles
 Optimization completed.
    -- Stationary point found.
 Normal termination of Gaussian DV at Sat Aug  2 15:32:27 2025.

 ----------------------------------------------------------------------
 #P Geom=AllCheck Guess=TCheck SCRF=Check GenChk RCAM-B3LYP/ChkBas Freq
 ----------------------------------------------------------------------

 Structure from the checkpoint file:  "H2O_CAMB3LYP_631pGdp.chk"
 -------------------------------
 Initial Stability Check for H2O
 -------------------------------
 Charge =     0 Multiplicity =     1

 SCF Done:  E(RCAM-B3LYP) =  -76.4057186548     A.U. after    1 cycles

 Isotropic polarizability for W=    0.000000        6.94 Bohr**3.
 End of Minotr FD prop file    721 does not exist.

                      1                      2                      3
                     A1                     A1                     B2
 Frequencies --   1597.5580              3851.2465              3972.3623
 Red. masses --      1.0839                 1.0441                 1.0836
 Frc consts  --      1.6298                 9.1238                10.0740
 IR Inten    --     97.9618                 9.7284                70.1478

 - Thermochemistry -
 -------------------
 Temperature 298.150 Kelvin.  Pressure 1.00000 Atm.
 Atom     1 has atomic number  8 and mass  15.99491

 Molecular mass:    18.01056 amu.
 Principal axes and moments of inertia in atomic units:
                                 1                 2                 3
     Eigenvalues --            2.137300          4.272901          6.410202
           X                   0.000000          0.000000          1.000000
           Y                   1.000000          0.000000         -0.000000
           Z                  -0.000000          1.000000         -0.000000
 This molecule is an asymmetric top.
 Rotational symmetry number  2.
 Rotational temperatures (Kelvin)     40.52492    20.27052    13.51189
 Rotational constants (GHZ):         844.40219   422.36906   281.54204
 Zero-point vibrational energy      56351.1 (Joules/Mol)
                                   13.46823 (Kcal/Mol)
 Vibrational temperatures:   2298.53  5541.08  5715.34
          (Kelvin)

 Zero-point correction=                           0.021463 (Hartree/Particle)
 Thermal correction to Energy=                    0.024299
 Thermal correction to Enthalpy=                  0.025243
 Thermal correction to Gibbs Free Energy=         0.003822
 Sum of electronic and zero-point Energies=            -76.384256
 Sum of electronic and thermal Energies=               -76.381420
 Sum of electronic and thermal Enthalpies=             -76.380476
 Sum of electronic and thermal Free Energies=          -76.401897

                     E (Thermal)             CV                S
                      KCal/Mol        Cal/Mol-Kelvin    Cal/Mol-Kelvin
 Total                   15.248              6.015             45.085
 Electronic               0.000              0.000              0.000
 Translational            0.889              2.981             34.608
 Rotational               0.889              2.981             10.469
 Vibrational             13.470              0.053              0.008

 Optimization completed.
    -- Stationary point found.
 Normal termination of Gaussian DV at Sat Aug  2 15:32:31 2025.

 ----------------------------------------------------------------------
 #P CAM-B3LYP chkbasis Geom=AllCheck Guess=Read Stable=Opt SCF=(fermi,n
 ovaracc)
 ----------------------------------------------------------------------

 Structure from the checkpoint file:  "H2O_CAMB3LYP_631pGdp-stab.chk"
 -------------------------------
 Initial Stability Check for H2O
 -------------------------------
 Charge =     0 Multiplicity =     1

                         Standard orientation:
 ---------------------------------------------------------------------
 Center     Atomic      Atomic             Coordinates (Angstroms)
 Number     Number       Type             X           Y           Z
 ---------------------------------------------------------------------
      1          8           0        0.000000    0.000000    0.115646
      2          1           0       -0.000000    0.770469   -0.462582
      3          1           0       -0.000000   -0.770469   -0.462582
 ---------------------------------------------------------------------

 SCF Done:  E(RCAM-B3LYP) =  -76.4057187329     A.U. after    1 cycles

 The electronic state is 1-A1.
 Alpha  occ. eigenvalues --      -19.24105      -1.10090      -0.61152      -0.46131      -0.38968
 Alpha virt. eigenvalues --        0.06987       0.15598       0.19240       0.19383       0.25499
 Alpha virt. eigenvalues --        0.28934       0.96886       1.05504       1.15138       1.17903
 Alpha virt. eigenvalues --        1.19094       1.29359       1.57424       1.61148       1.70480

 Mulliken charges:
               1
     1  O   -0.721781
     2  H    0.360890
     3  H    0.360890
 Sum of Mulliken charges=   0.00000

 Dipole moment (field-independent basis, Debye):
    X=             -0.0000    Y=             -0.0000    Z=             -2.2233  Tot=              2.2233
 Quadrupole moment (field-independent basis, Debye-Ang):
   XX=             -7.9003   YY=             -4.3502   ZZ=             -6.5624
   XY=              0.0000   XZ=              0.0000   YZ=              0.0000

 Normal termination of Gaussian DV at Sat Aug  2 15:32:33 2025.
