 --------------------------------------------------------------
 #P B3LYP/6-31+G(d,p) SCF=(fermi,novaracc) Guess=Mix Stable=Opt
 --------------------------------------------------------------

 -------------------------------
 Initial Stability Check for H2O
 -------------------------------
 Symbolic Z-matrix:
 Charge =     0 Multiplicity =     1

 SCF Done:  E(RB3LYP) =  -76.4273571713     A.U. after   11 cycles
 Normal termination of Gaussian DV at Sat Aug  2 15:31:05 2025.

 ----------------------------------------------------------------------
 #P B3LYP chkbasis Geom=AllCheck Guess=Read Opt Freq SCF=(fermi, novara
 cc) int=superfinegrid
 ----------------------------------------------------------------------

 Structure from the checkpoint file:  "H2O_B3LYP_631pGdp.chk"
 -------------------------------
 Initial Stability Check for H2O
 -------------------------------
 Charge =     0 Multiplicity =     1

 SCF Done:  E(RB3LYP) =  -76.4273572445     A.U. after    1 cycles
 SCF Done:  E(RB3LYP) =  -76.4337892000     A.U. after    8 cycles
 SCF Done:  E(RB3LYP) =  -76.4340451918     A.U. after    7 cycles
 SCF Done:  E(RB3LYP) =  -76.4340488345     A.U. after    6 cycles
 Optimization completed.
    -- Stationary point found.
 Normal termination of Gaussian DV at Sat Aug  2 15:31:13 2025.

 ------------------------------------------------------------------
 #P Geom=AllCheck Guess=TCheck SCRF=Check GenChk RB3LYP/ChkBas Freq
 ------------------------------------------------------------------

 Structure from the checkpoint file:  "H2O_B3LYP_631pGdp.chk"
 -------------------------------
 Initial Stability Check for H2O
 -------------------------------
 Charge =     0 Multiplicity =     1

 SCF Done:  E(RB3LYP) =  -76.4340488345     A.U. after    1 cycles

 Isotropic polarizability for W=    0.000000        7.03 Bohr**3.
 End of Minotr FD prop file    721 does not exist.

                      1                      2                      3
                     A1                     A1                     B2
 Frequencies --   1603.2812              3810.1201              3932.0062
 Red. masses --      1.0838                 1.0441                 1.0831
 Frc consts  --      1.6414                 8.9307                 9.8661
 IR Inten    --     91.2095                 6.4128                57.2631

 - Thermochemistry -
 -------------------
 Temperature 298.150 Kelvin.  Pressure 1.00000 Atm.
 Atom     1 has atomic number  8 and mass  15.99491

 Molecular mass:    18.01056 amu.
 Principal axes and moments of inertia in atomic units:
                                 1                 2                 3
     Eigenvalues --            2.168917          4.261195          6.430112
           X                   0.000000          0.000000          1.000000
           Y                   1.000000          0.000000         -0.000000
           Z                  -0.000000          1.000000          0.000000
 This molecule is an asymmetric top.
 Rotational symmetry number  2.
 Rotational temperatures (Kelvin)     39.93418    20.32620    13.47005
 Rotational constants (GHZ):         832.09318   423.52935   280.67025
 Zero-point vibrational energy      55898.0 (Joules/Mol)
                                   13.35993 (Kcal/Mol)
 Vibrational temperatures:   2306.76  5481.91  5657.28
          (Kelvin)

 Zero-point correction=                           0.021290 (Hartree/Particle)
 Thermal correction to Energy=                    0.024126
 Thermal correction to Enthalpy=                  0.025070
 Thermal correction to Gibbs Free Energy=         0.003642
 Sum of electronic and zero-point Energies=            -76.412758
 Sum of electronic and thermal Energies=               -76.409923
 Sum of electronic and thermal Enthalpies=             -76.408979
 Sum of electronic and thermal Free Energies=          -76.430407

                     E (Thermal)             CV                S
                      KCal/Mol        Cal/Mol-Kelvin    Cal/Mol-Kelvin
 Total                   15.139              6.014             45.100
 Electronic               0.000              0.000              0.000
 Translational            0.889              2.981             34.608
 Rotational               0.889              2.981             10.484
 Vibrational             13.362              0.052              0.008

 Optimization completed.
    -- Stationary point found.
 Normal termination of Gaussian DV at Sat Aug  2 15:31:17 2025.

 ----------------------------------------------------------------------
 #P B3LYP chkbasis Geom=AllCheck Guess=Read Stable=Opt SCF=(fermi,novar
 acc)
 ----------------------------------------------------------------------

 Structure from the checkpoint file:  "H2O_B3LYP_631pGdp-stab.chk"
 -------------------------------
 Initial Stability Check for H2O
 -------------------------------
 Charge =     0 Multiplicity =     1

                         Standard orientation:
 ---------------------------------------------------------------------
 Center     Atomic      Atomic             Coordinates (Angstroms)
 Number     Number       Type             X           Y           Z
 ---------------------------------------------------------------------
      1          8           0       -0.000000   -0.000000    0.116498
      2          1           0       -0.000000    0.769413   -0.465991
      3          1           0       -0.000000   -0.769413   -0.465991
 ---------------------------------------------------------------------

 SCF Done:  E(RB3LYP) =  -76.4340489135     A.U. after    1 cycles

 The electronic state is 1-A1.
 Alpha  occ. eigenvalues --      -19.16961      -1.02232      -0.54233      -0.39425      -0.32104
 Alpha virt. eigenvalues --        0.02515       0.11450       0.15505       0.15506       0.20615
 Alpha virt. eigenvalues --        0.24196       0.90044       0.98871       1.08839       1.11265
 Alpha virt. eigenvalues --        1.12671       1.23129       1.50295       1.53632       1.63046

 Mulliken charges:
               1
     1  O   -0.711911
     2  H    0.355956
     3  H    0.355956
 Sum of Mulliken charges=  -0.00000

 Dipole moment (field-independent basis, Debye):
    X=             -0.0000    Y=              0.0000    Z=             -2.1951  Tot=              2.1951
 Quadrupole moment (field-independent basis, Debye-Ang):
   XX=             -7.8841   YY=             -4.3758   ZZ=             -6.5375
   XY=              0.0000   XZ=              0.0000   YZ=             -0.0000

 1\1\GINC-HMNODE006\Stability\RB3LYP\Gen\H2O1\AABOUTAKA\02-Aug-2025\0\\
 #P B3LYP chkbasis Geom=AllCheck Guess=Read Stable=Opt SCF=(fermi,novar
 acc)\\Initial Stability Check for H2O\\0,1\O,0,0.,0.,-0.0521366858\H,0
 ,0.7694125629,0.,0.5303523429\H,0,-0.7694125629,0.,0.5303523429\\Versi
 on=ES64L-GDVRevJ.30+\State=1-A1\HF=-76.4340489\RMSD=1.802e-09\Dipole=0
 .,0.,0.8636162\Quadrupole=1.4051476,-1.2031353,-0.2020123,0.,0.,0.\PG=
 C02V [C2(O1),SGV(H2)]\\@
 The archive entry for this job was punched.

 Normal termination of Gaussian DV at Sat Aug  2 15:31:19 2025.
