 ------------------------------------------------------
 #P HF/STO-3G SCF=(fermi,novaracc) Guess=Mix Stable=Opt
 ------------------------------------------------------

 -------------------------------
 Initial Stability Check for H2O
 -------------------------------
 Symbolic Z-matrix:
 Charge =     0 Multiplicity =     1

 SCF Done:  E(RHF) =  -74.9458807839     A.U. after   11 cycles

 1\1\GINC-HMNODE006\Stability\RHF\STO-3G\H2O1\AABOUTAKA\02-Aug-2025\0\\
 #P HF/STO-3G SCF=(fermi,novaracc) Guess=Mix Stable=Opt\\Initial Stabil
 ity Check for H2O\\0,1\O,0,0.,0.,0.\H,0,0.758602,0.,0.504284\H,0,-0.75
 8602,0.,0.504284\\Version=ES64L-GDVRevJ.30+\State=1-A1\HF=-74.9458808\
 RMSD=1.333e-11\Dipole=0.,0.,0.6760892\Quadrupole=0.8168433,-0.6135283,
 -0.203315,0.,0.,0.\PG=C02V [C2(O1),SGV(H2)]\\@
 The archive entry for this job was punched.

 Normal termination of Gaussian DV at Sat Aug  2 15:32:37 2025.

 ----------------------------------------------------------------------
 #P HF chkbasis Geom=AllCheck Guess=Read Opt Freq SCF=(fermi, novaracc)
  int=superfinegrid
 ----------------------------------------------------------------------

 Structure from the checkpoint file:  "H2O_HF_STO3G.chk"
 -------------------------------
 Initial Stability Check for H2O
 -------------------------------
 Charge =     0 Multiplicity =     1

 SCF Done:  E(RHF) =  -74.9458807839     A.U. after    1 cycles
 SCF Done:  E(RHF) =  -74.9658643767     A.U. after   10 cycles
 SCF Done:  E(RHF) =  -74.9658975347     A.U. after    6 cycles
 SCF Done:  E(RHF) =  -74.9659009351     A.U. after    5 cycles
 Optimization completed.
    -- Stationary point found.
 Normal termination of Gaussian DV at Sat Aug  2 15:32:45 2025.

 ---------------------------------------------------------------
 #P Geom=AllCheck Guess=TCheck SCRF=Check GenChk RHF/ChkBas Freq
 ---------------------------------------------------------------

 Structure from the checkpoint file:  "H2O_HF_STO3G.chk"
 -------------------------------
 Initial Stability Check for H2O
 -------------------------------
 Charge =     0 Multiplicity =     1

 SCF Done:  E(RHF) =  -74.9659009351     A.U. after    1 cycles

 Isotropic polarizability for W=    0.000000        2.71 Bohr**3.
 FullF1:  Do perturbations      1 to       6.

                      1                      2                      3
                     A1                     A1                     B2
 Frequencies --   2171.1418              4138.5765              4388.8568
 Red. masses --      1.0785                 1.0491                 1.0773
 Frc consts  --      2.9952                10.5872                12.2260
 IR Inten    --      7.2050                44.3782                30.0944
 Raman Activ --      9.2741                47.8088                21.5931

 - Thermochemistry -
 -------------------
 Temperature 298.150 Kelvin.  Pressure 1.00000 Atm.
 Atom     1 has atomic number  8 and mass  15.99491

 Molecular mass:    18.01056 amu.
 Principal axes and moments of inertia in atomic units:
                                 1                 2                 3
     Eigenvalues --            2.588994          4.133551          6.722545
           X                   0.000000          0.000000          1.000000
           Y                   1.000000          0.000000         -0.000000
           Z                  -0.000000          1.000000         -0.000000
 This molecule is an asymmetric top.
 Rotational symmetry number  2.
 Rotational temperatures (Kelvin)     33.45467    20.95388    12.88410
 Rotational constants (GHZ):         697.08211   436.60789   268.46100
 Zero-point vibrational energy      63991.7 (Joules/Mol)
                                   15.29438 (Kcal/Mol)
 Vibrational temperatures:   3123.79  5954.49  6314.59
          (Kelvin)

 Zero-point correction=                           0.024373 (Hartree/Particle)
 Thermal correction to Energy=                    0.027206
 Thermal correction to Enthalpy=                  0.028150
 Thermal correction to Gibbs Free Energy=         0.006635
 Sum of electronic and zero-point Energies=            -74.941528
 Sum of electronic and thermal Energies=               -74.938695
 Sum of electronic and thermal Enthalpies=             -74.937751
 Sum of electronic and thermal Free Energies=          -74.959266

                     E (Thermal)             CV                S
                      KCal/Mol        Cal/Mol-Kelvin    Cal/Mol-Kelvin
 Total                   17.072              5.968             45.283
 Electronic               0.000              0.000              0.000
 Translational            0.889              2.981             34.608
 Rotational               0.889              2.981             10.674
 Vibrational             15.295              0.006              0.001

 Optimization completed.
    -- Stationary point found.
 Normal termination of Gaussian DV at Sat Aug  2 15:32:49 2025.

 ----------------------------------------------------------------------
 #P HF chkbasis Geom=AllCheck Guess=Read Stable=Opt SCF=(fermi,novaracc
 )
 ----------------------------------------------------------------------

 Structure from the checkpoint file:  "H2O_HF_STO3G-stab.chk"
 -------------------------------
 Initial Stability Check for H2O
 -------------------------------
 Charge =     0 Multiplicity =     1

                         Standard orientation:
 ---------------------------------------------------------------------
 Center     Atomic      Atomic             Coordinates (Angstroms)
 Number     Number       Type             X           Y           Z
 ---------------------------------------------------------------------
      1          8           0        0.000000    0.000000    0.127280
      2          1           0       -0.000000    0.757801   -0.509122
      3          1           0       -0.000000   -0.757801   -0.509122
 ---------------------------------------------------------------------

 SCF Done:  E(RHF) =  -74.9659009351     A.U. after    1 cycles

 The electronic state is 1-A1.
 Alpha  occ. eigenvalues --      -20.25169      -1.25755      -0.59364      -0.45988      -0.39266
 Alpha virt. eigenvalues --        0.58174       0.69229

 Mulliken charges:
               1
     1  O   -0.330282
     2  H    0.165141
     3  H    0.165141
 Sum of Mulliken charges=  -0.00000

 Dipole moment (field-independent basis, Debye):
    X=             -0.0000    Y=             -0.0000    Z=             -1.7094  Tot=              1.7094
 Quadrupole moment (field-independent basis, Debye-Ang):
   XX=             -6.1259   YY=             -4.4878   ZZ=             -5.3322
   XY=              0.0000   XZ=              0.0000   YZ=              0.0000

 Normal termination of Gaussian DV at Sat Aug  2 15:32:50 2025.
