 ------------------------------------------------------
 #P HF/genecp SCF=(fermi,novaracc) Guess=Mix Stable=Opt
 ------------------------------------------------------

 -------------------------------
 Initial Stability Check for H2O
 -------------------------------
 Symbolic Z-matrix:
 Charge =     0 Multiplicity =     1

 SCF Done:  E(RHF) =  -76.0583584729     A.U. after   12 cycles

 1\1\GINC-HMNODE006\Stability\RHF\GenECP\H2O1\AABOUTAKA\02-Aug-2025\0\\
 #P HF/genecp SCF=(fermi,novaracc) Guess=Mix Stable=Opt\\Initial Stabil
 ity Check for H2O\\0,1\O,0,0.,0.,0.\H,0,0.758602,0.,0.504284\H,0,-0.75
 8602,0.,0.504284\\Version=ES64L-GDVRevJ.30+\State=1-A1\HF=-76.0583585\
 RMSD=3.108e-09\Dipole=0.,0.,0.7103413\Quadrupole=1.4529675,-1.1048485,
 -0.348119,0.,0.,0.\PG=C02V [C2(O1),SGV(H2)]\\@
 The archive entry for this job was punched.

 Normal termination of Gaussian DV at Sat Aug  2 15:35:21 2025.

 ----------------------------------------------------------------------
 #P HF chkbasis Geom=AllCheck Guess=Read Opt Freq SCF=(fermi, novaracc)
  int=superfinegrid
 ----------------------------------------------------------------------

 Structure from the checkpoint file:  "H2O_HF_genecp.chk"
 -------------------------------
 Initial Stability Check for H2O
 -------------------------------
 Charge =     0 Multiplicity =     1

 SCF Done:  E(RHF) =  -76.0583584729     A.U. after    1 cycles
 SCF Done:  E(RHF) =  -76.0611620715     A.U. after    9 cycles
 SCF Done:  E(RHF) =  -76.0612015165     A.U. after    8 cycles
 SCF Done:  E(RHF) =  -76.0612030643     A.U. after    6 cycles
 Optimization completed.
    -- Stationary point found.
 Normal termination of Gaussian DV at Sat Aug  2 15:35:31 2025.

 ---------------------------------------------------------------
 #P Geom=AllCheck Guess=TCheck SCRF=Check GenChk RHF/ChkBas Freq
 ---------------------------------------------------------------

 Structure from the checkpoint file:  "H2O_HF_genecp.chk"
 -------------------------------
 Initial Stability Check for H2O
 -------------------------------
 Charge =     0 Multiplicity =     1

 SCF Done:  E(RHF) =  -76.0612030643     A.U. after    1 cycles

 Isotropic polarizability for W=    0.000000        8.23 Bohr**3.
 FullF1:  Do perturbations      1 to       6.

                      1                      2                      3
                     A1                     A1                     B2
 Frequencies --   1745.1796              4120.1055              4222.4089
 Red. masses --      1.0832                 1.0447                 1.0837
 Frc consts  --      1.9437                10.4485                11.3832
 IR Inten    --     96.3858                15.1025                92.2962
 Raman Activ --      0.8574                86.2163                24.7803

 - Thermochemistry -
 -------------------
 Temperature 298.150 Kelvin.  Pressure 1.00000 Atm.
 Atom     1 has atomic number  8 and mass  15.99491

 Molecular mass:    18.01056 amu.
 Principal axes and moments of inertia in atomic units:
                                 1                 2                 3
     Eigenvalues --            2.035204          4.082427          6.117631
           X                   0.000000          0.000000          1.000000
           Y                   1.000000          0.000000          0.000000
           Z                  -0.000000          1.000000          0.000000
 This molecule is an asymmetric top.
 Rotational symmetry number  2.
 Rotational temperatures (Kelvin)     42.55786    21.21628    14.15808
 Rotational constants (GHZ):         886.76181   442.07554   295.00654
 Zero-point vibrational energy      60337.8 (Joules/Mol)
                                   14.42108 (Kcal/Mol)
 Vibrational temperatures:   2510.92  5927.91  6075.10
          (Kelvin)

 Zero-point correction=                           0.022981 (Hartree/Particle)
 Thermal correction to Energy=                    0.025816
 Thermal correction to Enthalpy=                  0.026760
 Thermal correction to Gibbs Free Energy=         0.005407
 Sum of electronic and zero-point Energies=            -76.038222
 Sum of electronic and thermal Energies=               -76.035387
 Sum of electronic and thermal Enthalpies=             -76.034443
 Sum of electronic and thermal Free Energies=          -76.055796

                     E (Thermal)             CV                S
                      KCal/Mol        Cal/Mol-Kelvin    Cal/Mol-Kelvin
 Total                   16.200              5.993             44.941
 Electronic               0.000              0.000              0.000
 Translational            0.889              2.981             34.608
 Rotational               0.889              2.981             10.329
 Vibrational             14.422              0.031              0.004

 Optimization completed.
    -- Stationary point found.
 Normal termination of Gaussian DV at Sat Aug  2 15:35:36 2025.

 ----------------------------------------------------------------------
 #P HF chkbasis Geom=AllCheck Guess=Read Stable=Opt SCF=(fermi,novaracc
 )
 ----------------------------------------------------------------------

 Structure from the checkpoint file:  "H2O_HF_genecp-stab.chk"
 -------------------------------
 Initial Stability Check for H2O
 -------------------------------
 Charge =     0 Multiplicity =     1

                         Standard orientation:
 ---------------------------------------------------------------------
 Center     Atomic      Atomic             Coordinates (Angstroms)
 Number     Number       Type             X           Y           Z
 ---------------------------------------------------------------------
      1          8           0        0.000000   -0.000000    0.112850
      2          1           0        0.000000    0.753100   -0.451399
      3          1           0       -0.000000   -0.753100   -0.451399
 ---------------------------------------------------------------------

 SCF Done:  E(RHF) =  -76.0612030643     A.U. after    1 cycles

 The electronic state is 1-A1.
 Alpha  occ. eigenvalues --      -20.56350      -1.36084      -0.73044      -0.58450      -0.51124
 Alpha virt. eigenvalues --        0.02975       0.04764       0.13624       0.15737       0.17532
 Alpha virt. eigenvalues --        0.18247       0.22963       0.24558       0.26477       0.30334
 Alpha virt. eigenvalues --        0.31234       0.36613       0.44166       0.46961       0.60199

 Mulliken charges:
               1
     1  O   -0.410369
     2  H    0.205184
     3  H    0.205184
 Sum of Mulliken charges=   0.00000

 Dipole moment (field-independent basis, Debye):
    X=             -0.0000    Y=              0.0000    Z=             -1.9394  Tot=              1.9394
 Quadrupole moment (field-independent basis, Debye-Ang):
   XX=             -7.5231   YY=             -4.2052   ZZ=             -6.2876
   XY=              0.0000   XZ=              0.0000   YZ=             -0.0000

 Normal termination of Gaussian DV at Sat Aug  2 15:35:38 2025.
