 -------------------------------------------------------------
 #P CAM-B3LYP/STO-3G SCF=(fermi,novaracc) Guess=Mix Stable=Opt
 -------------------------------------------------------------

 -------------------------------
 Initial Stability Check for H2O
 -------------------------------
 Symbolic Z-matrix:
 Charge =     0 Multiplicity =     1

 SCF Done:  E(RCAM-B3LYP) =  -75.2574562113     A.U. after    9 cycles
 Normal termination of Gaussian DV at Sat Aug  2 15:31:25 2025.

 ----------------------------------------------------------------------
 #P CAM-B3LYP chkbasis Geom=AllCheck Guess=Read Opt Freq SCF=(fermi, no
 varacc) int=superfinegrid
 ----------------------------------------------------------------------

 Structure from the checkpoint file:  "H2O_CAMB3LYP_STO3G.chk"
 -------------------------------
 Initial Stability Check for H2O
 -------------------------------
 Charge =     0 Multiplicity =     1

 SCF Done:  E(RCAM-B3LYP) =  -75.2574563462     A.U. after    1 cycles
 SCF Done:  E(RCAM-B3LYP) =  -75.2869817042     A.U. after   10 cycles
 SCF Done:  E(RCAM-B3LYP) =  -75.2881048284     A.U. after    6 cycles
 SCF Done:  E(RCAM-B3LYP) =  -75.2885724133     A.U. after    6 cycles
 SCF Done:  E(RCAM-B3LYP) =  -75.2885984672     A.U. after    6 cycles
 Optimization completed.
    -- Stationary point found.
 Normal termination of Gaussian DV at Sat Aug  2 15:31:35 2025.

 ----------------------------------------------------------------------
 #P Geom=AllCheck Guess=TCheck SCRF=Check GenChk RCAM-B3LYP/ChkBas Freq
 ----------------------------------------------------------------------

 Structure from the checkpoint file:  "H2O_CAMB3LYP_STO3G.chk"
 -------------------------------
 Initial Stability Check for H2O
 -------------------------------
 Charge =     0 Multiplicity =     1

 SCF Done:  E(RCAM-B3LYP) =  -75.2885984672     A.U. after    1 cycles

 Isotropic polarizability for W=    0.000000        2.86 Bohr**3.
 End of Minotr FD prop file    721 does not exist.

                      1                      2                      3
                     A1                     A1                     B2
 Frequencies --   2026.5289              3694.9908              3921.9431
 Red. masses --      1.0775                 1.0500                 1.0749
 Frc consts  --      2.6072                 8.4467                 9.7414
 IR Inten    --      3.2100                62.7719                45.0592

 - Thermochemistry -
 -------------------
 Temperature 298.150 Kelvin.  Pressure 1.00000 Atm.
 Atom     1 has atomic number  8 and mass  15.99491

 Molecular mass:    18.01056 amu.
 Principal axes and moments of inertia in atomic units:
                                 1                 2                 3
     Eigenvalues --            2.893190          4.252096          7.145286
           X                   0.000000          0.000000          1.000000
           Y                   1.000000          0.000000         -0.000000
           Z                  -0.000000          1.000000          0.000000
 This molecule is an asymmetric top.
 Rotational symmetry number  2.
 Rotational temperatures (Kelvin)     29.93717    20.36970    12.12183
 Rotational constants (GHZ):         623.78937   424.43564   252.57787
 Zero-point vibrational energy      57680.7 (Joules/Mol)
                                   13.78602 (Kcal/Mol)
 Vibrational temperatures:   2915.72  5316.27  5642.80
          (Kelvin)

 Zero-point correction=                           0.021969 (Hartree/Particle)
 Thermal correction to Energy=                    0.024803
 Thermal correction to Enthalpy=                  0.025747
 Thermal correction to Gibbs Free Energy=         0.004136
 Sum of electronic and zero-point Energies=            -75.266629
 Sum of electronic and thermal Energies=               -75.263796
 Sum of electronic and thermal Enthalpies=             -75.262852
 Sum of electronic and thermal Free Energies=          -75.284462

                     E (Thermal)             CV                S
                      KCal/Mol        Cal/Mol-Kelvin    Cal/Mol-Kelvin
 Total                   15.564              5.972             45.483
 Electronic               0.000              0.000              0.000
 Translational            0.889              2.981             34.608
 Rotational               0.889              2.981             10.873
 Vibrational             13.786              0.011              0.001

 Optimization completed.
    -- Stationary point found.
 Normal termination of Gaussian DV at Sat Aug  2 15:31:38 2025.

 ----------------------------------------------------------------------
 #P CAM-B3LYP chkbasis Geom=AllCheck Guess=Read Stable=Opt SCF=(fermi,n
 ovaracc)
 ----------------------------------------------------------------------

 Structure from the checkpoint file:  "H2O_CAMB3LYP_STO3G-stab.chk"
 -------------------------------
 Initial Stability Check for H2O
 -------------------------------
 Charge =     0 Multiplicity =     1

                         Standard orientation:
 ---------------------------------------------------------------------
 Center     Atomic      Atomic             Coordinates (Angstroms)
 Number     Number       Type             X           Y           Z
 ---------------------------------------------------------------------
      1          8           0        0.000000   -0.000000    0.134550
      2          1           0       -0.000000    0.768591   -0.538201
      3          1           0       -0.000000   -0.768591   -0.538201
 ---------------------------------------------------------------------

 SCF Done:  E(RCAM-B3LYP) =  -75.2885985838     A.U. after    1 cycles

 The electronic state is 1-A1.
 Alpha  occ. eigenvalues --      -18.91924      -0.99093      -0.47221      -0.31879      -0.21557
 Alpha virt. eigenvalues --        0.37763       0.46433

 Mulliken charges:
               1
     1  O   -0.306034
     2  H    0.153017
     3  H    0.153017
 Sum of Mulliken charges=  -0.00000

 Dipole moment (field-independent basis, Debye):
    X=             -0.0000    Y=             -0.0000    Z=             -1.6339  Tot=              1.6339
 Quadrupole moment (field-independent basis, Debye-Ang):
   XX=             -6.1558   YY=             -4.5562   ZZ=             -5.2886
   XY=              0.0000   XZ=              0.0000   YZ=             -0.0000

 Normal termination of Gaussian DV at Sat Aug  2 15:31:40 2025.
