 -------------------------------------------------------------
 #P CAM-B3LYP/genecp SCF=(fermi,novaracc) Guess=Mix Stable=Opt
 -------------------------------------------------------------

 -------------------------------
 Initial Stability Check for H2O
 -------------------------------
 Symbolic Z-matrix:
 Charge =     0 Multiplicity =     1

 SCF Done:  E(RCAM-B3LYP) =  -76.4323266393     A.U. after   11 cycles
 Normal termination of Gaussian DV at Sat Aug  2 15:31:48 2025.

 ----------------------------------------------------------------------
 #P CAM-B3LYP chkbasis Geom=AllCheck Guess=Read Opt Freq SCF=(fermi, no
 varacc) int=superfinegrid
 ----------------------------------------------------------------------

 Structure from the checkpoint file:  "H2O_CAMB3LYP_genecp.chk"
 -------------------------------
 Initial Stability Check for H2O
 -------------------------------
 Charge =     0 Multiplicity =     1

 SCF Done:  E(RCAM-B3LYP) =  -76.4323267038     A.U. after    1 cycles
 SCF Done:  E(RCAM-B3LYP) =  -76.4378388085     A.U. after    8 cycles
 SCF Done:  E(RCAM-B3LYP) =  -76.4380623466     A.U. after    8 cycles
 SCF Done:  E(RCAM-B3LYP) =  -76.4380678695     A.U. after    7 cycles
 Optimization completed.
    -- Stationary point found.
 Normal termination of Gaussian DV at Sat Aug  2 15:32:00 2025.

 ----------------------------------------------------------------------
 #P Geom=AllCheck Guess=TCheck SCRF=Check GenChk RCAM-B3LYP/ChkBas Freq
 ----------------------------------------------------------------------

 Structure from the checkpoint file:  "H2O_CAMB3LYP_genecp.chk"
 -------------------------------
 Initial Stability Check for H2O
 -------------------------------
 Charge =     0 Multiplicity =     1

 SCF Done:  E(RCAM-B3LYP) =  -76.4380678695     A.U. after    1 cycles

 Isotropic polarizability for W=    0.000000        9.64 Bohr**3.
 End of Minotr FD prop file    721 does not exist.

                      1                      2                      3
                     A1                     A1                     B2
 Frequencies --   1621.4249              3836.6851              3938.2391
 Red. masses --      1.0835                 1.0444                 1.0828
 Frc consts  --      1.6783                 9.0581                 9.8951
 IR Inten    --     80.7378                 7.2889                75.5442

 - Thermochemistry -
 -------------------
 Temperature 298.150 Kelvin.  Pressure 1.00000 Atm.
 Atom     1 has atomic number  8 and mass  15.99491

 Molecular mass:    18.01056 amu.
 Principal axes and moments of inertia in atomic units:
                                 1                 2                 3
     Eigenvalues --            2.159181          4.204575          6.363756
           X                  -0.000000          0.000000          1.000000
           Y                   1.000000          0.000000         -0.000000
           Z                  -0.000000          1.000000         -0.000000
 This molecule is an asymmetric top.
 Rotational symmetry number  2.
 Rotational temperatures (Kelvin)     40.11425    20.59992    13.61050
 Rotational constants (GHZ):         835.84524   429.23276   283.59687
 Zero-point vibrational energy      56202.6 (Joules/Mol)
                                   13.43276 (Kcal/Mol)
 Vibrational temperatures:   2332.87  5520.13  5666.25
          (Kelvin)

 Zero-point correction=                           0.021406 (Hartree/Particle)
 Thermal correction to Energy=                    0.024242
 Thermal correction to Enthalpy=                  0.025186
 Thermal correction to Gibbs Free Energy=         0.003771
 Sum of electronic and zero-point Energies=            -76.416661
 Sum of electronic and thermal Energies=               -76.413826
 Sum of electronic and thermal Enthalpies=             -76.412882
 Sum of electronic and thermal Free Energies=          -76.434297

                     E (Thermal)             CV                S
                      KCal/Mol        Cal/Mol-Kelvin    Cal/Mol-Kelvin
 Total                   15.212              6.010             45.071
 Electronic               0.000              0.000              0.000
 Translational            0.889              2.981             34.608
 Rotational               0.889              2.981             10.456
 Vibrational             13.435              0.049              0.007

 Optimization completed.
    -- Stationary point found.
 Normal termination of Gaussian DV at Sat Aug  2 15:32:07 2025.

 ----------------------------------------------------------------------
 #P CAM-B3LYP chkbasis Geom=AllCheck Guess=Read Stable=Opt SCF=(fermi,n
 ovaracc)
 ----------------------------------------------------------------------

 Structure from the checkpoint file:  "H2O_CAMB3LYP_genecp-stab.chk"
 -------------------------------
 Initial Stability Check for H2O
 -------------------------------
 Charge =     0 Multiplicity =     1

                         Standard orientation:
 ---------------------------------------------------------------------
 Center     Atomic      Atomic             Coordinates (Angstroms)
 Number     Number       Type             X           Y           Z
 ---------------------------------------------------------------------
      1          8           0       -0.000000    0.000000    0.116236
      2          1           0       -0.000000    0.764284   -0.464944
      3          1           0       -0.000000   -0.764284   -0.464944
 ---------------------------------------------------------------------

 SCF Done:  E(RCAM-B3LYP) =  -76.4380679360     A.U. after    1 cycles

 The electronic state is 1-A1.
 Alpha  occ. eigenvalues --      -19.21104      -1.09972      -0.60976      -0.46613      -0.39279
 Alpha virt. eigenvalues --        0.00119       0.03383       0.09945       0.12299       0.13049
 Alpha virt. eigenvalues --        0.14387       0.17995       0.20041       0.22148       0.25251
 Alpha virt. eigenvalues --        0.25820       0.33168       0.36555       0.38705       0.51357

 Mulliken charges:
               1
     1  O   -0.345281
     2  H    0.172640
     3  H    0.172640
 Sum of Mulliken charges=  -0.00000

 Dipole moment (field-independent basis, Debye):
    X=             -0.0000    Y=             -0.0000    Z=             -1.8785  Tot=              1.8785
 Quadrupole moment (field-independent basis, Debye-Ang):
   XX=             -7.8192   YY=             -4.4463   ZZ=             -6.5241
   XY=              0.0000   XZ=              0.0000   YZ=             -0.0000

 Normal termination of Gaussian DV at Sat Aug  2 15:32:11 2025.
