 ----------------------------------------------------------------------
 #P B3LYP/genecp SCF=(fermi,novaracc) Guess=Mix Stable=Opt scf=(qc,conv
 er=8)
 ----------------------------------------------------------------------

 -------------------------------
 Initial Stability Check for H2O
 -------------------------------
 Symbolic Z-matrix:
 Charge =     0 Multiplicity =     1

 SCF Done:  E(RB3LYP) =  -76.4601198537     a.u. after    8 cycles
 Normal termination of Gaussian DV at Sun Aug  3 21:43:04 2025.

 ----------------------------------------------------------------------
 #P B3LYP chkbasis Geom=AllCheck Guess=Read Opt Freq SCF=(fermi, novara
 cc) int=superfinegrid scf=(qc,conver=8)
 ----------------------------------------------------------------------

 Structure from the checkpoint file:  "H2O_B3LYP_genecp.chk"
 -------------------------------
 Initial Stability Check for H2O
 -------------------------------
 Charge =     0 Multiplicity =     1

 SCF Done:  E(RB3LYP) =  -76.4601199294     a.u. after    1 cycles
 SCF Done:  E(RB3LYP) =  -76.4659343409     a.u. after    6 cycles
 SCF Done:  E(RB3LYP) =  -76.4661893004     a.u. after    4 cycles
 SCF Done:  E(RB3LYP) =  -76.4661981774     a.u. after    3 cycles
 Optimization completed.
    -- Stationary point found.
 Normal termination of Gaussian DV at Sun Aug  3 21:43:19 2025.

 ------------------------------------------------------------------
 #P Geom=AllCheck Guess=TCheck SCRF=Check GenChk RB3LYP/ChkBas Freq
 ------------------------------------------------------------------

 Structure from the checkpoint file:  "H2O_B3LYP_genecp.chk"
 -------------------------------
 Initial Stability Check for H2O
 -------------------------------
 Charge =     0 Multiplicity =     1

 SCF Done:  E(RB3LYP) =  -76.4661981774     a.u. after    1 cycles

 Isotropic polarizability for W=    0.000000        9.81 Bohr**3.
 End of Minotr FD prop file    721 does not exist.

                      1                      2                      3
                     A1                     A1                     B2
 Frequencies --   1627.1511              3797.5288              3900.1479
 Red. masses --      1.0834                 1.0445                 1.0824
 Frc consts  --      1.6901                 8.8747                 9.7009
 IR Inten    --     75.7698                 4.6455                63.0306

 - Thermochemistry -
 -------------------
 Temperature 298.150 Kelvin.  Pressure 1.00000 Atm.
 Atom     1 has atomic number  8 and mass  15.99491

 Molecular mass:    18.01056 amu.
 Principal axes and moments of inertia in atomic units:
                                 1                 2                 3
     Eigenvalues --            2.187242          4.195278          6.382520
           X                   0.000000          0.000000          1.000000
           Y                   1.000000          0.000000         -0.000000
           Z                  -0.000000          1.000000          0.000000
 This molecule is an asymmetric top.
 Rotational symmetry number  2.
 Rotational temperatures (Kelvin)     39.59961    20.64557    13.57049
 Rotational constants (GHZ):         825.12195   430.18393   282.76312
 Zero-point vibrational energy      55774.9 (Joules/Mol)
                                   13.33051 (Kcal/Mol)
 Vibrational temperatures:   2341.11  5463.80  5611.44
          (Kelvin)

 Zero-point correction=                           0.021244 (Hartree/Particle)
 Thermal correction to Energy=                    0.024079
 Thermal correction to Enthalpy=                  0.025023
 Thermal correction to Gibbs Free Energy=         0.003602
 Sum of electronic and zero-point Energies=            -76.444955
 Sum of electronic and thermal Energies=               -76.442119
 Sum of electronic and thermal Enthalpies=             -76.441175
 Sum of electronic and thermal Free Energies=          -76.462596

                     E (Thermal)             CV                S
                      KCal/Mol        Cal/Mol-Kelvin    Cal/Mol-Kelvin
 Total                   15.110              6.009             45.085
 Electronic               0.000              0.000              0.000
 Translational            0.889              2.981             34.608
 Rotational               0.889              2.981             10.470
 Vibrational             13.332              0.048              0.007

 Optimization completed.
    -- Stationary point found.
 Normal termination of Gaussian DV at Sun Aug  3 21:43:31 2025.

 ----------------------------------------------------------------------
 #P B3LYP chkbasis Geom=AllCheck Guess=Read Stable=Opt SCF=(fermi,novar
 acc) scf=(qc,conver=8)
 ----------------------------------------------------------------------

 Structure from the checkpoint file:  "H2O_B3LYP_genecp-stab.chk"
 -------------------------------
 Initial Stability Check for H2O
 -------------------------------
 Charge =     0 Multiplicity =     1

                         Standard orientation:
 ---------------------------------------------------------------------
 Center     Atomic      Atomic             Coordinates (Angstroms)
 Number     Number       Type             X           Y           Z
 ---------------------------------------------------------------------
      1          8           0       -0.000000   -0.000000    0.116989
      2          1           0       -0.000000    0.763438   -0.467956
      3          1           0       -0.000000   -0.763438   -0.467956
 ---------------------------------------------------------------------

 SCF Done:  E(RB3LYP) =  -76.4661982408     a.u. after    1 cycles

 The electronic state is 1-A1.
 Alpha  occ. eigenvalues --      -19.14044      -1.02113      -0.54070      -0.39898      -0.32413
 Alpha virt. eigenvalues --       -0.02506       0.01919       0.07569       0.09538       0.10264
 Alpha virt. eigenvalues --        0.11484       0.15089       0.17010       0.19139       0.21994
 Alpha virt. eigenvalues --        0.22420       0.30706       0.33000       0.34773       0.47153

 Mulliken charges:
               1
     1  O   -0.354548
     2  H    0.177274
     3  H    0.177274
 Sum of Mulliken charges=   0.00000

 Dipole moment (field-independent basis, Debye):
    X=             -0.0000    Y=             -0.0000    Z=             -1.8472  Tot=              1.8472
 Quadrupole moment (field-independent basis, Debye-Ang):
   XX=             -7.8029   YY=             -4.4691   ZZ=             -6.5069
   XY=              0.0000   XZ=              0.0000   YZ=              0.0000

 Normal termination of Gaussian DV at Sun Aug  3 21:43:35 2025.
