 ---------------------------------------------------------
 #P B3LYP/STO-3G SCF=(fermi,novaracc) Guess=Mix Stable=Opt
 ---------------------------------------------------------

 -------------------------------
 Initial Stability Check for H2O
 -------------------------------
 Symbolic Z-matrix:
 Charge =     0 Multiplicity =     1

 SCF Done:  E(RB3LYP) =  -75.2893390410     A.U. after    9 cycles
 Normal termination of Gaussian DV at Sat Aug  2 15:30:33 2025.

 ----------------------------------------------------------------------
 #P B3LYP chkbasis Geom=AllCheck Guess=Read Opt Freq SCF=(fermi, novara
 cc) int=superfinegrid
 ----------------------------------------------------------------------

 Structure from the checkpoint file:  "H2O_B3LYP_STO3G.chk"
 -------------------------------
 Initial Stability Check for H2O
 -------------------------------
 Charge =     0 Multiplicity =     1

 SCF Done:  E(RB3LYP) =  -75.2893391824     A.U. after    1 cycles
 SCF Done:  E(RB3LYP) =  -75.3205312745     A.U. after   10 cycles
 SCF Done:  E(RB3LYP) =  -75.3221122368     A.U. after    6 cycles
 SCF Done:  E(RB3LYP) =  -75.3227337616     A.U. after    6 cycles
 SCF Done:  E(RB3LYP) =  -75.3227750115     A.U. after    6 cycles
 Optimization completed.
    -- Stationary point found.
 Normal termination of Gaussian DV at Sat Aug  2 15:30:43 2025.

 ------------------------------------------------------------------
 #P Geom=AllCheck Guess=TCheck SCRF=Check GenChk RB3LYP/ChkBas Freq
 ------------------------------------------------------------------

 Structure from the checkpoint file:  "H2O_B3LYP_STO3G.chk"
 -------------------------------
 Initial Stability Check for H2O
 -------------------------------
 Charge =     0 Multiplicity =     1

 SCF Done:  E(RB3LYP) =  -75.3227750115     A.U. after    1 cycles

 Isotropic polarizability for W=    0.000000        2.91 Bohr**3.
 End of Minotr FD prop file    721 does not exist.

                      1                      2                      3
                     A1                     A1                     B2
 Frequencies --   2017.3270              3611.2752              3835.5230
 Red. masses --      1.0771                 1.0505                 1.0745
 Frc consts  --      2.5825                 8.0714                 9.3129
 IR Inten    --      2.7078                69.5653                53.6789

 - Thermochemistry -
 -------------------
 Temperature 298.150 Kelvin.  Pressure 1.00000 Atm.
 Atom     1 has atomic number  8 and mass  15.99491

 Molecular mass:    18.01056 amu.
 Principal axes and moments of inertia in atomic units:
                                 1                 2                 3
     Eigenvalues --            2.952303          4.272313          7.224615
           X                   0.000000          0.000000          1.000000
           Y                   1.000000          0.000000         -0.000000
           Z                  -0.000000          1.000000         -0.000000
 This molecule is an asymmetric top.
 Rotational symmetry number  2.
 Rotational temperatures (Kelvin)     29.33775    20.27331    11.98872
 Rotational constants (GHZ):         611.29955   422.42720   249.80447
 Zero-point vibrational energy      56608.0 (Joules/Mol)
                                   13.52965 (Kcal/Mol)
 Vibrational temperatures:   2902.48  5195.82  5518.46
          (Kelvin)

 Zero-point correction=                           0.021561 (Hartree/Particle)
 Thermal correction to Energy=                    0.024394
 Thermal correction to Enthalpy=                  0.025338
 Thermal correction to Gibbs Free Energy=         0.003711
 Sum of electronic and zero-point Energies=            -75.301214
 Sum of electronic and thermal Energies=               -75.298381
 Sum of electronic and thermal Enthalpies=             -75.297437
 Sum of electronic and thermal Free Energies=          -75.319064

                     E (Thermal)             CV                S
                      KCal/Mol        Cal/Mol-Kelvin    Cal/Mol-Kelvin
 Total                   15.307              5.973             45.518
 Electronic               0.000              0.000              0.000
 Translational            0.889              2.981             34.608
 Rotational               0.889              2.981             10.909
 Vibrational             13.530              0.011              0.001

 Optimization completed.
    -- Stationary point found.
 Normal termination of Gaussian DV at Sat Aug  2 15:30:46 2025.

 ----------------------------------------------------------------------
 #P B3LYP chkbasis Geom=AllCheck Guess=Read Stable=Opt SCF=(fermi,novar
 acc)
 ----------------------------------------------------------------------

 Structure from the checkpoint file:  "H2O_B3LYP_STO3G-stab.chk"
 -------------------------------
 Initial Stability Check for H2O
 -------------------------------
 Charge =     0 Multiplicity =     1

                         Standard orientation:
 ---------------------------------------------------------------------
 Center     Atomic      Atomic             Coordinates (Angstroms)
 Number     Number       Type             X           Y           Z
 ---------------------------------------------------------------------
      1          8           0       -0.000000    0.000000    0.135918
      2          1           0        0.000000    0.770416   -0.543672
      3          1           0       -0.000000   -0.770416   -0.543672
 ---------------------------------------------------------------------

 SCF Done:  E(RB3LYP) =  -75.3227751098     A.U. after    1 cycles

 The electronic state is 1-A1.
 Alpha  occ. eigenvalues --      -18.85232      -0.91213      -0.40438      -0.25490      -0.14609
 Alpha virt. eigenvalues --        0.30409       0.38654

 Mulliken charges:
               1
     1  O   -0.298056
     2  H    0.149028
     3  H    0.149028
 Sum of Mulliken charges=   0.00000

 Dipole moment (field-independent basis, Debye):
    X=             -0.0000    Y=              0.0000    Z=             -1.5934  Tot=              1.5934
 Quadrupole moment (field-independent basis, Debye-Ang):
   XX=             -6.1631   YY=             -4.5856   ZZ=             -5.2856
   XY=              0.0000   XZ=              0.0000   YZ=              0.0000

 1\1\GINC-HMNODE006\Stability\RB3LYP\Gen\H2O1\AABOUTAKA\02-Aug-2025\0\\
 #P B3LYP chkbasis Geom=AllCheck Guess=Read Stable=Opt SCF=(fermi,novar
 acc)\\Initial Stability Check for H2O\\0,1\O,0,0.,0.,-0.1168703692\H,0
 ,0.7704156407,0.,0.5627191846\H,0,-0.7704156407,0.,0.5627191846\\Versi
 on=ES64L-GDVRevJ.30+\State=1-A1\HF=-75.3227751\RMSD=4.817e-09\Dipole=0
 .,0.,0.626905\Quadrupole=0.5644519,-0.6084299,0.043978,0.,0.,0.\PG=C02
 V [C2(O1),SGV(H2)]\\@
 The archive entry for this job was punched.

 Normal termination of Gaussian DV at Sat Aug  2 15:30:48 2025.
