 -----------------------------------------------------------
 #P HF/6-31+G(d,p) SCF=(fermi,novaracc) Guess=Mix Stable=Opt
 -----------------------------------------------------------

 -------------------------------
 Initial Stability Check for H2O
 -------------------------------
 Symbolic Z-matrix:
 Charge =     0 Multiplicity =     1

 SCF Done:  E(RHF) =  -76.0282531424     A.U. after   13 cycles
 Normal termination of Gaussian DV at Sat Aug  2 15:35:50 2025.

 ----------------------------------------------------------------------
 #P HF chkbasis Geom=AllCheck Guess=Read Opt Freq SCF=(fermi, novaracc)
  int=superfinegrid
 ----------------------------------------------------------------------

 Structure from the checkpoint file:  "H2O_HF_631pGdp.chk"
 -------------------------------
 Initial Stability Check for H2O
 -------------------------------
 Charge =     0 Multiplicity =     1

 SCF Done:  E(RHF) =  -76.0282531424     A.U. after    1 cycles
 SCF Done:  E(RHF) =  -76.0311901835     A.U. after    9 cycles
 SCF Done:  E(RHF) =  -76.0312291270     A.U. after    9 cycles
 SCF Done:  E(RHF) =  -76.0312305618     A.U. after    8 cycles
 Optimization completed.
    -- Stationary point found.
 Normal termination of Gaussian DV at Sat Aug  2 15:35:58 2025.

 ---------------------------------------------------------------
 #P Geom=AllCheck Guess=TCheck SCRF=Check GenChk RHF/ChkBas Freq
 ---------------------------------------------------------------

 Structure from the checkpoint file:  "H2O_HF_631pGdp.chk"
 -------------------------------
 Initial Stability Check for H2O
 -------------------------------
 Charge =     0 Multiplicity =     1

 SCF Done:  E(RHF) =  -76.0312305618     A.U. after    1 cycles

 Isotropic polarizability for W=    0.000000        5.98 Bohr**3.
 FullF1:  Do perturbations      1 to       6.

                      1                      2                      3
                     A1                     A1                     B2
 Frequencies --   1729.5895              4149.3480              4271.5874
 Red. masses --      1.0836                 1.0443                 1.0844
 Frc consts  --      1.9099                10.5933                11.6584
 IR Inten    --    116.0004                21.9650                92.5858
 Raman Activ --      2.8651                74.4856                36.1165

 - Thermochemistry -
 -------------------
 Temperature 298.150 Kelvin.  Pressure 1.00000 Atm.
 Atom     1 has atomic number  8 and mass  15.99491

 Molecular mass:    18.01056 amu.
 Principal axes and moments of inertia in atomic units:
                                 1                 2                 3
     Eigenvalues --            2.005820          4.143015          6.148835
           X                  -0.000000          0.000000          1.000000
           Y                   1.000000          0.000000          0.000000
           Z                  -0.000000          1.000000          0.000000
 This molecule is an asymmetric top.
 Rotational symmetry number  2.
 Rotational temperatures (Kelvin)     43.18130    20.90601    14.08623
 Rotational constants (GHZ):         899.75220   435.61063   293.50946
 Zero-point vibrational energy      60713.6 (Joules/Mol)
                                   14.51090 (Kcal/Mol)
 Vibrational temperatures:   2488.49  5969.99  6145.86
          (Kelvin)

 Zero-point correction=                           0.023125 (Hartree/Particle)
 Thermal correction to Energy=                    0.025959
 Thermal correction to Enthalpy=                  0.026903
 Thermal correction to Gibbs Free Energy=         0.005548
 Sum of electronic and zero-point Energies=            -76.008106
 Sum of electronic and thermal Energies=               -76.005272
 Sum of electronic and thermal Enthalpies=             -76.004327
 Sum of electronic and thermal Free Energies=          -76.025683

                     E (Thermal)             CV                S
                      KCal/Mol        Cal/Mol-Kelvin    Cal/Mol-Kelvin
 Total                   16.290              5.994             44.947
 Electronic               0.000              0.000              0.000
 Translational            0.889              2.981             34.608
 Rotational               0.889              2.981             10.334
 Vibrational             14.512              0.033              0.004

 Optimization completed.
    -- Stationary point found.
 Normal termination of Gaussian DV at Sat Aug  2 15:36:03 2025.

 ----------------------------------------------------------------------
 #P HF chkbasis Geom=AllCheck Guess=Read Stable=Opt SCF=(fermi,novaracc
 )
 ----------------------------------------------------------------------

 Structure from the checkpoint file:  "H2O_HF_631pGdp-stab.chk"
 -------------------------------
 Initial Stability Check for H2O
 -------------------------------
 Charge =     0 Multiplicity =     1

                         Standard orientation:
 ---------------------------------------------------------------------
 Center     Atomic      Atomic             Coordinates (Angstroms)
 Number     Number       Type             X           Y           Z
 ---------------------------------------------------------------------
      1          8           0        0.000000    0.000000    0.112032
      2          1           0       -0.000000    0.758668   -0.448128
      3          1           0       -0.000000   -0.758668   -0.448128
 ---------------------------------------------------------------------

 SCF Done:  E(RHF) =  -76.0312305618     A.U. after    1 cycles

 The electronic state is 1-A1.
 Alpha  occ. eigenvalues --      -20.57897      -1.36219      -0.73292      -0.58105      -0.50974
 Alpha virt. eigenvalues --        0.14616       0.21852       0.25040       0.25219       0.36301
 Alpha virt. eigenvalues --        0.38949       1.19257       1.28296       1.33525       1.38837
 Alpha virt. eigenvalues --        1.40513       1.45710       1.78560       1.82901       1.92330

 Mulliken charges:
               1
     1  O   -0.734552
     2  H    0.367276
     3  H    0.367276
 Sum of Mulliken charges=  -0.00000

 Dipole moment (field-independent basis, Debye):
    X=             -0.0000    Y=              0.0000    Z=             -2.2339  Tot=              2.2339
 Quadrupole moment (field-independent basis, Debye-Ang):
   XX=             -7.5920   YY=             -4.1319   ZZ=             -6.3357
   XY=              0.0000   XZ=              0.0000   YZ=             -0.0000

 Normal termination of Gaussian DV at Sat Aug  2 15:36:04 2025.
