 ----------------------------
 #P B3LYP genecp scf=novaracc
 ----------------------------

 ----------------
 HOH_angle_step09
 ----------------
 Symbolic Z-matrix:
 Charge =     0 Multiplicity =     1

                         Standard orientation:
 ---------------------------------------------------------------------
 Center     Atomic      Atomic             Coordinates (Angstroms)
 Number     Number       Type             X           Y           Z
 ---------------------------------------------------------------------
      1          8           0        0.000000   -0.000000    0.065668
      2          1           0       -0.000000    0.902105   -0.262671
      3          1           0       -0.000000   -0.902105   -0.262671
 ---------------------------------------------------------------------

 SCF Done:  E(RB3LYP) =  -76.4444206969     A.U. after    8 cycles

 The electronic state is 1-A1.
 Alpha  occ. eigenvalues --      -19.12465      -1.00111      -0.58851      -0.34134      -0.31687
 Alpha virt. eigenvalues --       -0.02460       0.01675       0.07313       0.09001       0.09143
 Alpha virt. eigenvalues --        0.11256       0.15611       0.16536       0.18094       0.26128
 Alpha virt. eigenvalues --        0.26183       0.29312       0.31431       0.35451       0.48889

 Mulliken charges:
               1
     1  O   -0.385071
     2  H    0.192535
     3  H    0.192535
 Sum of Mulliken charges=  -0.00000

 Dipole moment (field-independent basis, Debye):
    X=             -0.0000    Y=              0.0000    Z=             -1.1860  Tot=              1.1860
 Quadrupole moment (field-independent basis, Debye-Ang):
   XX=             -7.8885   YY=             -3.1338   ZZ=             -7.4543
   XY=              0.0000   XZ=              0.0000   YZ=             -0.0000

 Normal termination of Gaussian DV at Wed Aug  6 20:06:52 2025.
