 ----------------------------
 #P B3LYP genecp scf=novaracc
 ----------------------------

 ----------------
 HOH_angle_step08
 ----------------
 Symbolic Z-matrix:
 Charge =     0 Multiplicity =     1

                         Standard orientation:
 ---------------------------------------------------------------------
 Center     Atomic      Atomic             Coordinates (Angstroms)
 Number     Number       Type             X           Y           Z
 ---------------------------------------------------------------------
      1          8           0        0.000000   -0.000000    0.073475
      2          1           0        0.000000    0.886924   -0.293901
      3          1           0       -0.000000   -0.886924   -0.293901
 ---------------------------------------------------------------------

 SCF Done:  E(RB3LYP) =  -76.4493164512     A.U. after    8 cycles

 The electronic state is 1-A1.
 Alpha  occ. eigenvalues --      -19.12709      -1.00377      -0.58370      -0.34851      -0.31798
 Alpha virt. eigenvalues --       -0.02425       0.01701       0.07467       0.09132       0.09199
 Alpha virt. eigenvalues --        0.11288       0.15812       0.16308       0.18205       0.25467
 Alpha virt. eigenvalues --        0.25486       0.29576       0.31777       0.35424       0.49097

 Mulliken charges:
               1
     1  O   -0.374727
     2  H    0.187363
     3  H    0.187363
 Sum of Mulliken charges=  -0.00000

 Dipole moment (field-independent basis, Debye):
    X=             -0.0000    Y=              0.0000    Z=             -1.3002  Tot=              1.3002
 Quadrupole moment (field-independent basis, Debye-Ang):
   XX=             -7.8735   YY=             -3.3051   ZZ=             -7.3357
   XY=              0.0000   XZ=              0.0000   YZ=             -0.0000

 Normal termination of Gaussian DV at Wed Aug  6 20:06:41 2025.
