 ----------------------------
 #P B3LYP genecp scf=novaracc
 ----------------------------

 ----------------
 HOH_angle_step05
 ----------------
 Symbolic Z-matrix:
 Charge =     0 Multiplicity =     1

                         Standard orientation:
 ---------------------------------------------------------------------
 Center     Atomic      Atomic             Coordinates (Angstroms)
 Number     Number       Type             X           Y           Z
 ---------------------------------------------------------------------
      1          8           0       -0.000000   -0.000000    0.096000
      2          1           0        0.000000    0.831384   -0.384000
      3          1           0       -0.000000   -0.831384   -0.384000
 ---------------------------------------------------------------------

 SCF Done:  E(RB3LYP) =  -76.4614099658     A.U. after    8 cycles

 The electronic state is 1-A1.
 Alpha  occ. eigenvalues --      -19.13406      -1.01228      -0.56537      -0.37258      -0.32122
 Alpha virt. eigenvalues --       -0.02394       0.01801       0.07674       0.09375       0.09702
 Alpha virt. eigenvalues --        0.11400       0.15652       0.16445       0.18623       0.23588
 Alpha virt. eigenvalues --        0.23705       0.30264       0.32653       0.35209       0.47968

 Mulliken charges:
               1
     1  O   -0.354197
     2  H    0.177099
     3  H    0.177099
 Sum of Mulliken charges=  -0.00000

 Dipole moment (field-independent basis, Debye):
    X=             -0.0000    Y=             -0.0000    Z=             -1.6001  Tot=              1.6001
 Quadrupole moment (field-independent basis, Debye-Ang):
   XX=             -7.8317   YY=             -3.8664   ZZ=             -6.9393
   XY=              0.0000   XZ=              0.0000   YZ=              0.0000

 Normal termination of Gaussian DV at Wed Aug  6 20:06:11 2025.
