 ----------------------------
 #P B3LYP genecp scf=novaracc
 ----------------------------

 ----------------
 HOH_angle_step01
 ----------------
 Symbolic Z-matrix:
 Charge =     0 Multiplicity =     1

                         Standard orientation:
 ---------------------------------------------------------------------
 Center     Atomic      Atomic             Coordinates (Angstroms)
 Number     Number       Type             X           Y           Z
 ---------------------------------------------------------------------
      1          8           0        0.000000    0.000000    0.123415
      2          1           0        0.000000    0.735403   -0.493661
      3          1           0       -0.000000   -0.735403   -0.493661
 ---------------------------------------------------------------------

 SCF Done:  E(RB3LYP) =  -76.4655305416     A.U. after    8 cycles

 The electronic state is 1-A1.
 Alpha  occ. eigenvalues --      -19.14204      -1.02560      -0.53196      -0.40862      -0.32530
 Alpha virt. eigenvalues --       -0.02559       0.01972       0.07494       0.09581       0.10429
 Alpha virt. eigenvalues --        0.11541       0.14951       0.17187       0.19338       0.21524
 Alpha virt. eigenvalues --        0.22129       0.30854       0.33009       0.34674       0.46985

 Mulliken charges:
               1
     1  O   -0.352682
     2  H    0.176341
     3  H    0.176341
 Sum of Mulliken charges=  -0.00000

 Dipole moment (field-independent basis, Debye):
    X=             -0.0000    Y=              0.0000    Z=             -1.9209  Tot=              1.9209
 Quadrupole moment (field-independent basis, Debye-Ang):
   XX=             -7.7897   YY=             -4.6857   ZZ=             -6.3532
   XY=              0.0000   XZ=              0.0000   YZ=              0.0000

 Normal termination of Gaussian DV at Wed Aug  6 20:14:41 2025.
