 ----------------------------
 #P B3LYP genecp scf=novaracc
 ----------------------------

 ----------------
 HOH_angle_step04
 ----------------
 Symbolic Z-matrix:
 Charge =     0 Multiplicity =     1

                         Standard orientation:
 ---------------------------------------------------------------------
 Center     Atomic      Atomic             Coordinates (Angstroms)
 Number     Number       Type             X           Y           Z
 ---------------------------------------------------------------------
      1          8           0        0.000000    0.000000    0.103162
      2          1           0       -0.000000    0.809656   -0.412646
      3          1           0       -0.000000   -0.809656   -0.412646
 ---------------------------------------------------------------------

 SCF Done:  E(RB3LYP) =  -76.4640093296     A.U. after    8 cycles

 The electronic state is 1-A1.
 Alpha  occ. eigenvalues --      -19.13621      -1.01534      -0.55796      -0.38125      -0.32226
 Alpha virt. eigenvalues --       -0.02411       0.01841       0.07670       0.09432       0.09908
 Alpha virt. eigenvalues --        0.11439       0.15453       0.16650       0.18789       0.23026
 Alpha virt. eigenvalues --        0.23218       0.30435       0.32853       0.35096       0.47618

 Mulliken charges:
               1
     1  O   -0.351745
     2  H    0.175872
     3  H    0.175872
 Sum of Mulliken charges=   0.00000

 Dipole moment (field-independent basis, Debye):
    X=             -0.0000    Y=             -0.0000    Z=             -1.6877  Tot=              1.6877
 Quadrupole moment (field-independent basis, Debye-Ang):
   XX=             -7.8195   YY=             -4.0654   ZZ=             -6.7970
   XY=              0.0000   XZ=              0.0000   YZ=              0.0000

 Normal termination of Gaussian DV at Wed Aug  6 20:06:01 2025.
