 ----------------------------
 #P B3LYP genecp scf=novaracc
 ----------------------------

 ----------------
 HOH_angle_step06
 ----------------
 Symbolic Z-matrix:
 Charge =     0 Multiplicity =     1

                         Standard orientation:
 ---------------------------------------------------------------------
 Center     Atomic      Atomic             Coordinates (Angstroms)
 Number     Number       Type             X           Y           Z
 ---------------------------------------------------------------------
      1          8           0        0.000000   -0.000000    0.088656
      2          1           0        0.000000    0.851530   -0.354623
      3          1           0       -0.000000   -0.851530   -0.354623
 ---------------------------------------------------------------------

 SCF Done:  E(RB3LYP) =  -76.4579885875     A.U. after    8 cycles

 The electronic state is 1-A1.
 Alpha  occ. eigenvalues --      -19.13182      -1.00935      -0.57213      -0.36420      -0.32016
 Alpha virt. eigenvalues --       -0.02391       0.01764       0.07646       0.09317       0.09494
 Alpha virt. eigenvalues --        0.11361       0.15863       0.16234       0.18470       0.24185
 Alpha virt. eigenvalues --        0.24246       0.30062       0.32399       0.35303       0.48434

 Mulliken charges:
               1
     1  O   -0.358736
     2  H    0.179368
     3  H    0.179368
 Sum of Mulliken charges=  -0.00000

 Dipole moment (field-independent basis, Debye):
    X=             -0.0000    Y=              0.0000    Z=             -1.5067  Tot=              1.5067
 Quadrupole moment (field-independent basis, Debye-Ang):
   XX=             -7.8449   YY=             -3.6726   ZZ=             -7.0771
   XY=              0.0000   XZ=              0.0000   YZ=              0.0000

 Normal termination of Gaussian DV at Wed Aug  6 20:06:21 2025.
