 -----------------------
 #p B3LYP/6-31G opt freq
 -----------------------

 ------------
 CH2O neutral
 ------------
 Symbolic Z-matrix:
 Charge =     0 Multiplicity =     1

 SCF Done:  E(RB3LYP) =  -114.461137096     A.U. after   11 cycles
 Optimization completed.
    -- Stationary point found.
 Normal termination of Gaussian DV at Wed Jul 30 08:01:54 2025.

 -----------------------------------------------------------------
 #P Geom=AllCheck Guess=TCheck SCRF=Check GenChk RB3LYP/6-31G Freq
 -----------------------------------------------------------------

 Structure from the checkpoint file:  "ch2o_neutral.chk"
 ------------
 CH2O neutral
 ------------
 Charge =     0 Multiplicity =     1

                         Standard orientation:
 ---------------------------------------------------------------------
 Center     Atomic      Atomic             Coordinates (Angstroms)
 Number     Number       Type             X           Y           Z
 ---------------------------------------------------------------------
      1          6           0        0.000000   -0.000000   -0.542434
      2          8           0       -0.000000    0.000000    0.689176
      3          1           0       -0.000000    0.933400   -1.129399
      4          1           0       -0.000000   -0.933400   -1.129399
 ---------------------------------------------------------------------

 SCF Done:  E(RB3LYP) =  -114.461137096     A.U. after    1 cycles

 Isotropic polarizability for W=    0.000000       12.54 Bohr**3.
 End of Minotr FD prop file    721 does not exist.

 The electronic state is 1-A1.
 Alpha  occ. eigenvalues --      -19.17475     -10.29213      -1.07384      -0.64570      -0.50427
 Alpha  occ. eigenvalues --       -0.44404      -0.39958      -0.27097
 Alpha virt. eigenvalues --       -0.05653       0.09862       0.17344       0.21128       0.50685
 Alpha virt. eigenvalues --        0.62127       0.63061       0.70790       0.85730       0.87900
 Alpha virt. eigenvalues --        0.95225       0.95516       1.10349       1.59398

 Mulliken charges:
               1
     1  C    0.093856
     2  O   -0.341302
     3  H    0.123723
     4  H    0.123723
 Sum of Mulliken charges=   0.00000

 Dipole moment (field-independent basis, Debye):
    X=             -0.0000    Y=             -0.0000    Z=             -2.4705  Tot=              2.4705
 Quadrupole moment (field-independent basis, Debye-Ang):
   XX=            -11.5125   YY=            -11.5507   ZZ=            -12.3381
   XY=              0.0000   XZ=              0.0000   YZ=              0.0000

                      1                      2                      3
                     B1                     B2                     A1
 Frequencies --   1203.2673              1273.8139              1560.3184
 Red. masses --      1.3614                 1.3344                 1.2896
 Frc consts  --      1.1614                 1.2757                 1.8498
 IR Inten    --      6.6193                 9.3786                17.4686

                      4                      5                      6
                     A1                     A1                     B2
 Frequencies --   1748.2054              2963.2811              3034.4618
 Red. masses --      3.7504                 1.0472                 1.1180
 Frc consts  --      6.7533                 5.4177                 6.0655
 IR Inten    --     60.9116                38.9673               147.8965

 - Thermochemistry -
 -------------------
 Temperature 298.150 Kelvin.  Pressure 1.00000 Atm.
 Atom     1 has atomic number  6 and mass  12.00000

 Molecular mass:    30.01056 amu.
 Principal axes and moments of inertia in atomic units:
                                 1                 2                 3
     Eigenvalues --            6.271168         48.323731         54.594900
           X                   0.000000         -0.000000          1.000000
           Y                   0.000000          1.000000          0.000000
           Z                   1.000000         -0.000000         -0.000000
 This molecule is an asymmetric top.
 Rotational symmetry number  2.
 Rotational temperatures (Kelvin)     13.81145     1.79237     1.58648
 Rotational constants (GHZ):         287.78388    37.34689    33.05696
 Zero-point vibrational energy      70480.1 (Joules/Mol)
                                   16.84514 (Kcal/Mol)
 Vibrational temperatures:   1731.23  1832.73  2244.95  2515.28  4263.50
          (Kelvin)           4365.91

 Zero-point correction=                           0.026844 (Hartree/Particle)
 Thermal correction to Energy=                    0.029712
 Thermal correction to Enthalpy=                  0.030656
 Thermal correction to Gibbs Free Energy=         0.005810
 Sum of electronic and zero-point Energies=           -114.434293
 Sum of electronic and thermal Energies=              -114.431426
 Sum of electronic and thermal Enthalpies=            -114.430481
 Sum of electronic and thermal Free Energies=         -114.455327

                     E (Thermal)             CV                S
                      KCal/Mol        Cal/Mol-Kelvin    Cal/Mol-Kelvin
 Total                   18.644              6.417             52.292
 Electronic               0.000              0.000              0.000
 Translational            0.889              2.981             36.130
 Rotational               0.889              2.981             16.077
 Vibrational             16.867              0.456              0.084

 Optimization completed.
    -- Stationary point found.
 Normal termination of Gaussian DV at Wed Jul 30 08:02:02 2025.
