 Gaussian 16, Revision A.03,
 Gaussian 16:  AS64L-G16RevA.03 25-Dec-2016

 ---------------------------------------------------------------------
 #p opt=calcfc freq ub3lyp/genecp int=ultrafine scf=(tight,xqc,intrep)
 ---------------------------------------------------------------------

 -------------
 Gd3O3_ring_24
 -------------
 Symbolic Z-matrix:
 Charge = -1 Multiplicity =24

 SCF Done:  E(UB3LYP) =  -2523.69335346     A.U. after   33 cycles
 SCF Done:  E(UB3LYP) =  -2523.69335346     a.u. after    2 cycles
 SCF Done:  E(UB3LYP) =  -2523.70935679     A.U. after   22 cycles
 SCF Done:  E(UB3LYP) =  -2523.71860962     A.U. after   24 cycles
 SCF Done:  E(UB3LYP) =  -2523.71826432     A.U. after   22 cycles
 SCF Done:  E(UB3LYP) =  -2523.71868808     A.U. after   19 cycles
 SCF Done:  E(UB3LYP) =  -2523.71873052     A.U. after   19 cycles
 SCF Done:  E(UB3LYP) =  -2523.71874465     A.U. after   15 cycles
 SCF Done:  E(UB3LYP) =  -2523.71874630     A.U. after   14 cycles
 SCF Done:  E(UB3LYP) =  -2523.71872939     A.U. after   11 cycles
 SCF Done:  E(UB3LYP) =  -2523.71875520     A.U. after   14 cycles
 Optimization completed.
    -- Stationary point found.
 Normal termination of Gaussian 16 at Thu Aug 14 17:00:51 2025.

 ------------------------------------------------------------------
 #P Geom=AllCheck Guess=TCheck SCRF=Check GenChk UB3LYP/GenECP Freq
 ------------------------------------------------------------------

 Structure from the checkpoint file:  "guess1.chk"
 -------------
 Gd3O3_ring_24
 -------------
 Charge = -1 Multiplicity =24

                         Standard orientation:
 ---------------------------------------------------------------------
 Center     Atomic      Atomic             Coordinates (Angstroms)
 Number     Number       Type             X           Y           Z
 ---------------------------------------------------------------------
      1         64           0        0.877717    2.027421   -0.000012
      2         64           0       -2.195797   -0.253959    0.000091
      3         64           0        1.317810   -1.773523   -0.000079
      4          8           0        1.943264    0.225007   -0.000074
      5          8           0       -0.775717   -1.793135    0.000005
      6          8           0       -1.165384    1.568615    0.000066
 ---------------------------------------------------------------------

 SCF Done:  E(UB3LYP) =  -2523.71875520     A.U. after    3 cycles

 The electronic state is 24-A.
 Alpha  occ. eigenvalues --  -18.91320 -18.91319 -18.91317 -14.05351 -14.05349
 Alpha  occ. eigenvalues --  -14.05348  -9.79278  -9.79276  -9.79275  -9.79138
 Alpha  occ. eigenvalues --   -9.79136  -9.79136  -9.78832  -9.78829  -9.78829
 Alpha  occ. eigenvalues --   -5.20951  -5.20950  -5.20948  -5.20945  -5.20943
 Alpha  occ. eigenvalues --   -5.20943  -5.20754  -5.20752  -5.20751  -5.20617
 Alpha  occ. eigenvalues --   -5.20614  -5.20614  -5.20599  -5.20597  -5.20597
 Alpha  occ. eigenvalues --   -1.78745  -1.78702  -1.78701  -0.86842  -0.86840
 Alpha  occ. eigenvalues --   -0.86226  -0.83406  -0.83290  -0.83288  -0.83274
 Alpha  occ. eigenvalues --   -0.83175  -0.83173  -0.66867  -0.64831  -0.64825
 Alpha  occ. eigenvalues --   -0.21270  -0.21268  -0.20277  -0.20277  -0.20244
 Alpha  occ. eigenvalues --   -0.20221  -0.20219  -0.20198  -0.20064  -0.19838
 Alpha  occ. eigenvalues --   -0.19838  -0.19831  -0.19830  -0.19725  -0.19617
 Alpha  occ. eigenvalues --   -0.19562  -0.19562  -0.19495  -0.19493  -0.19450
 Alpha  occ. eigenvalues --   -0.19341  -0.16033  -0.16030  -0.15256  -0.13002
 Alpha  occ. eigenvalues --   -0.13000  -0.12809  -0.12771  -0.12308  -0.12299
 Alpha  occ. eigenvalues --   -0.05180  -0.03072  -0.03070
 Alpha virt. eigenvalues --    0.05704   0.05704   0.05874   0.07173   0.08104
 Alpha virt. eigenvalues --    0.08255   0.08256   0.08701   0.08702   0.10087
 Alpha virt. eigenvalues --    0.10091   0.10610   0.11874   0.12459   0.12683

  Beta  occ. eigenvalues --  -18.91544 -18.91543 -18.91541 -13.73867 -13.73865
  Beta  occ. eigenvalues --  -13.73864  -9.48087  -9.48085  -9.48084  -9.47985
  Beta  occ. eigenvalues --   -9.47984  -9.47983  -9.47750  -9.47747  -9.47747
  Beta  occ. eigenvalues --   -4.86978  -4.86977  -4.86977  -4.86975  -4.86974
  Beta  occ. eigenvalues --   -4.86973  -4.86788  -4.86786  -4.86785  -4.86738
  Beta  occ. eigenvalues --   -4.86736  -4.86735  -4.86643  -4.86640  -4.86640
  Beta  occ. eigenvalues --   -1.60687  -1.60606  -1.60605  -0.81402  -0.81398
  Beta  occ. eigenvalues --   -0.80121  -0.74734  -0.74450  -0.74447  -0.74202
  Beta  occ. eigenvalues --   -0.74035  -0.74034  -0.64256  -0.61580  -0.61573
  Beta  occ. eigenvalues --   -0.16259  -0.16255  -0.14447  -0.14002  -0.14000
  Beta  occ. eigenvalues --   -0.13591  -0.12880  -0.12874  -0.12839   0.01399
  Beta virt. eigenvalues --    0.04243   0.04244   0.06833   0.06834   0.06927
  Beta virt. eigenvalues --    0.07875   0.08998   0.09369   0.09370   0.10118
  Beta virt. eigenvalues --    0.10121   0.11028   0.11667   0.11669   0.13291

 Mulliken charges and spin densities:
               1          2
     1  Gd   0.607925   7.770938
     2  Gd   0.606386   7.770122
     3  Gd   0.608158   7.771359
     4  O   -0.941034  -0.104124
     5  O   -0.940731  -0.104139
     6  O   -0.940703  -0.104156
 Sum of Mulliken charges =  -1.00000  23.00000

 Dipole moment (field-independent basis, Debye):
    X=              0.0046    Y=             -0.0007    Z=             -0.0000  Tot=              0.0046
 Quadrupole moment (field-independent basis, Debye-Ang):
   XX=           -143.1227   YY=           -143.0699   ZZ=           -127.0280
   XY=             -0.0055   XZ=              0.0007   YZ=             -0.0002

  Exact polarizability:1881.042   0.2901878.574  -0.057   0.016 590.999
 Approx polarizability:2238.945   0.5062235.037  -0.066   0.018 779.524

                      1                      2                      3
                      A                      A                      A
 Frequencies --     66.0976                72.3692                79.0779
 Red. masses --     17.1252                17.1321                58.6021
 Frc consts  --      0.0441                 0.0529                 0.2159
 IR Inten    --      0.0002                 0.0151                 0.0757

                      4                      5                      6
                      A                      A                      A
 Frequencies --     79.9532               102.5994               147.0325
 Red. masses --     58.7905                17.4286                99.2803
 Frc consts  --      0.2214                 0.1081                 1.2646
 IR Inten    --      0.0805                 0.6298                 0.0004

                      7                      8                      9
                      A                      A                      A
 Frequencies --    336.9229               337.7856               356.1285
 Red. masses --     20.2093                20.2286                17.0137
 Frc consts  --      1.3516                 1.3599                 1.2713
 IR Inten    --      6.0053                 5.4650                 0.0223

                     10                     11                     12
                      A                      A                      A
 Frequencies --    441.0760               585.0377               586.7591
 Red. masses --     17.1253                16.7478                16.7468
 Frc consts  --      1.9630                 3.3773                 3.3970
 IR Inten    --      0.1140              1396.8651              1402.8159

 - Thermochemistry -
 -------------------
 Temperature   298.150 Kelvin.  Pressure   1.00000 Atm.
 Atom     1 has atomic number 64 and mass 157.92410

 Molecular mass:   521.75704 amu.
 Principal axes and moments of inertia in atomic units:
                           1         2         3
     Eigenvalues --  4455.436664460.622118916.05878
           X            1.00000   0.00045   0.00004
           Y           -0.00045   1.00000  -0.00001
           Z           -0.00004   0.00001   1.00000
 This molecule is an asymmetric top.
 Rotational symmetry number  1.
 Warning -- assumption of classical behavior for rotation
           may cause significant error
 Rotational temperatures (Kelvin)      0.01944     0.01942     0.00971
 Rotational constants (GHZ):           0.40506     0.40459     0.20241
 Zero-point vibrational energy      19085.5 (Joules/Mol)
                                    4.56153 (Kcal/Mol)
 Warning -- explicit consideration of  12 degrees of freedom as
           vibrations may cause significant error
 Vibrational temperatures:     95.10   104.12   113.78   115.03   147.62
          (Kelvin)            211.55   484.76   486.00   512.39   634.61
                              841.74   844.22

 Zero-point correction=                           0.007269 (Hartree/Particle)
 Thermal correction to Energy=                    0.016332
 Thermal correction to Enthalpy=                  0.017277
 Thermal correction to Gibbs Free Energy=        -0.036000
 Sum of electronic and zero-point Energies=          -2523.711486
 Sum of electronic and thermal Energies=             -2523.702423
 Sum of electronic and thermal Enthalpies=           -2523.701479
 Sum of electronic and thermal Free Energies=        -2523.754755

                     E (Thermal)             CV                S
                      KCal/Mol        Cal/Mol-Kelvin    Cal/Mol-Kelvin
 Total                   10.249             25.947            112.131
 Electronic               0.000              0.000              6.315
 Translational            0.889              2.981             44.642
 Rotational               0.889              2.981             33.538
 Vibrational              8.471             19.985             27.635
 Vibration     1          0.597              1.970              4.266
 Vibration     2          0.598              1.967              4.088
 Vibration     3          0.600              1.963              3.914
 Vibration     4          0.600              1.963              3.892
 Vibration     5          0.605              1.947              3.404
 Vibration     6          0.617              1.906              2.710
 Vibration     7          0.718              1.602              1.227
 Vibration     8          0.718              1.600              1.223
 Vibration     9          0.732              1.563              1.139
 Vibration    10          0.801              1.381              0.823
 Vibration    11          0.942              1.064              0.476
 Vibration    12          0.944              1.060              0.473

                           ! Non-Optimized Parameters !
 Normal termination of Gaussian 16 at Thu Aug 14 17:49:24 2025.
