 -----------------------------------------------------------------
 #p uwb97xd genecp scf=(fermi,zqc) integral=SuperFineGrid opt freq
 -----------------------------------------------------------------

 -------------------
 Title Card Required
 -------------------
 Symbolic Z-matrix:
 Charge =    -1 Multiplicity =    24

 SCF Done:  E(UwB97XD) =  -2523.92457697     A.U. after   24 cycles
 SCF Done:  E(UwB97XD) =  -2523.92474825     A.U. after   23 cycles
 SCF Done:  E(UwB97XD) =  -2523.92479392     A.U. after   22 cycles
 SCF Done:  E(UwB97XD) =  -2523.92487468     A.U. after   24 cycles
 SCF Done:  E(UwB97XD) =  -2523.92492108     A.U. after   23 cycles
 SCF Done:  E(UwB97XD) =  -2523.92500297     A.U. after   23 cycles
 SCF Done:  E(UwB97XD) =  -2523.92501304     A.U. after   21 cycles
 SCF Done:  E(UwB97XD) =  -2523.92501724     A.U. after   19 cycles
 SCF Done:  E(UwB97XD) =  -2523.92502174     A.U. after   21 cycles
 SCF Done:  E(UwB97XD) =  -2523.92502377     A.U. after   21 cycles
 SCF Done:  E(UwB97XD) =  -2523.92502427     A.U. after   21 cycles
 Optimization completed.
    -- Stationary point found.
 Normal termination of Gaussian DV at Thu Jun 12 18:14:49 2025.

 -------------------------------------------------------------------
 #P Geom=AllCheck Guess=TCheck SCRF=Check GenChk UwB97XD/GenECP Freq
 -------------------------------------------------------------------

 Structure from the checkpoint file:  "Gd3O3_book_24_uwb97xd.chk"
 -------------------
 Title Card Required
 -------------------
 Charge =    -1 Multiplicity =    24

                         Standard orientation:
 ---------------------------------------------------------------------
 Center     Atomic      Atomic             Coordinates (Angstroms)
 Number     Number       Type             X           Y           Z
 ---------------------------------------------------------------------
      1         64           0        0.000127    1.767344    0.083955
      2         64           0        1.962320   -0.972116   -0.023188
      3         64           0       -1.962486   -0.971937   -0.023203
      4          8           0       -1.932170    1.002683   -0.541181
      5          8           0        0.000067   -0.591440    0.781980
      6          8           0        1.932416    1.002431   -0.541321
 ---------------------------------------------------------------------

 SCF Done:  E(UwB97XD) =  -2523.92502427     A.U. after    3 cycles

 Isotropic polarizability for W=    0.000000      830.56 Bohr**3.
 End of Minotr FD prop file    721 does not exist.

 The electronic state is 24-A.
 Alpha  occ. eigenvalues --      -19.04515     -19.02649     -19.02649     -14.18114     -14.18112
 Alpha  occ. eigenvalues --      -14.17637      -9.91564      -9.91562      -9.91382      -9.91380
 Alpha  occ. eigenvalues --       -9.91242      -9.91240      -9.91134      -9.91011      -9.90651
 Alpha  occ. eigenvalues --       -5.32457      -5.32455      -5.32449      -5.32447      -5.32367
 Alpha  occ. eigenvalues --       -5.32365      -5.32265      -5.32263      -5.32166      -5.32164
 Alpha  occ. eigenvalues --       -5.32083      -5.32068      -5.31857      -5.31734      -5.31684
 Alpha  occ. eigenvalues --       -1.88977      -1.88944      -1.88524      -0.96918      -0.96761
 Alpha  occ. eigenvalues --       -0.95156      -0.92489      -0.92437      -0.92234      -0.92013
 Alpha  occ. eigenvalues --       -0.91568      -0.91378      -0.77011      -0.75230      -0.73180
 Alpha  occ. eigenvalues --       -0.30820      -0.30775      -0.30269      -0.30103      -0.30026
 Alpha  occ. eigenvalues --       -0.30005      -0.29997      -0.29925      -0.29922      -0.29760
 Alpha  occ. eigenvalues --       -0.29708      -0.29687      -0.29650      -0.29643      -0.29489
 Alpha  occ. eigenvalues --       -0.29475      -0.29297      -0.29255      -0.29181      -0.29175
 Alpha  occ. eigenvalues --       -0.29164      -0.25360      -0.25122      -0.23634      -0.22828
 Alpha  occ. eigenvalues --       -0.21493      -0.20627      -0.20245      -0.19087      -0.18619
 Alpha  occ. eigenvalues --       -0.12106      -0.08759      -0.08137
 Alpha virt. eigenvalues --        0.08503       0.09368       0.09520       0.11043       0.11962
 Alpha virt. eigenvalues --        0.12559       0.13062       0.13359       0.13831       0.14166
 Alpha virt. eigenvalues --        0.14445       0.15442       0.16568       0.16909       0.17198

  Beta  occ. eigenvalues --      -19.04537     -19.02786     -19.02786     -13.87275     -13.87274
  Beta  occ. eigenvalues --      -13.86754      -9.60397      -9.60395      -9.60255      -9.60253
  Beta  occ. eigenvalues --       -9.60149      -9.60147      -9.59939      -9.59815      -9.59520
  Beta  occ. eigenvalues --       -4.97731      -4.97730      -4.97713      -4.97712      -4.97658
  Beta  occ. eigenvalues --       -4.97656      -4.97534      -4.97532      -4.97512      -4.97510
  Beta  occ. eigenvalues --       -4.97320      -4.97305      -4.97092      -4.96990      -4.96912
  Beta  occ. eigenvalues --       -1.71667      -1.71598      -1.71154      -0.91420      -0.91326
  Beta  occ. eigenvalues --       -0.89369      -0.84008      -0.83395      -0.83002      -0.83000
  Beta  occ. eigenvalues --       -0.82895      -0.82480      -0.73651      -0.72196      -0.69841
  Beta  occ. eigenvalues --       -0.25038      -0.24071      -0.23408      -0.22772      -0.21665
  Beta  occ. eigenvalues --       -0.21441      -0.20699      -0.19628      -0.19624      -0.03422
  Beta virt. eigenvalues --        0.07057       0.08011       0.08888       0.09374       0.10086
  Beta virt. eigenvalues --        0.11635       0.12968       0.13288       0.13473       0.14146
  Beta virt. eigenvalues --        0.14770       0.15208       0.16229       0.16716       0.17544

 Mulliken charges and spin densities:
               1          2
     1  Gd   0.813301   8.113170
     2  Gd   0.512969   7.539850
     3  Gd   0.512783   7.539382
     4  O   -0.938492  -0.066789
     5  O   -0.962041  -0.058785
     6  O   -0.938519  -0.066827
 Sum of Mulliken charges =  -1.00000  23.00000

 Dipole moment (field-independent basis, Debye):
    X=              0.0032    Y=              1.3643    Z=              1.6431  Tot=              2.1357
 Quadrupole moment (field-independent basis, Debye-Ang):
   XX=           -140.2735   YY=           -137.9309   ZZ=           -125.6517
   XY=             -0.0100   XZ=              0.0003   YZ=             -0.7417

                      1                      2                      3
                      A                      A                      A
 Frequencies --     54.0746               112.1292               113.9332
 Red. masses --     49.2789                32.0367                18.4026
 Frc consts  --      0.0849                 0.2373                 0.1407
 IR Inten    --      1.0095                11.3772                 1.0121

                      4                      5                      6
                      A                      A                      A
 Frequencies --    141.9653               153.1379               230.2513
 Red. masses --     76.4629                22.1199                24.0839
 Frc consts  --      0.9080                 0.3056                 0.7523
 IR Inten    --     11.6050                 2.3586                 1.5444

                      7                      8                      9
                      A                      A                      A
 Frequencies --    305.8256               342.7249               426.7364
 Red. masses --     18.4326                17.4423                17.5288
 Frc consts  --      1.0157                 1.2071                 1.8807
 IR Inten    --      0.4071               276.9544               157.8380

                     10                     11                     12
                      A                      A                      A
 Frequencies --    469.8104               533.6390               562.7777
 Red. masses --     16.5224                16.7771                17.2050
 Frc consts  --      2.1487                 2.8149                 3.2105
 IR Inten    --     10.0265               969.8393               241.1657

 - Thermochemistry -
 -------------------
 Temperature 298.150 Kelvin.  Pressure 1.00000 Atm.
 Atom     1 has atomic number 64 and mass 157.92410

 Molecular mass:   521.75704 amu.
 Principal axes and moments of inertia in atomic units:
                                 1                 2                 3
     Eigenvalues --         3034.795338       4842.981999       7732.140803
           X                   1.000000         -0.000002         -0.000001
           Y                   0.000002          0.999974         -0.007180
           Z                   0.000001          0.007180          0.999974
 This molecule is an asymmetric top.
 Rotational symmetry number  1.
 Warning -- assumption of classical behavior for rotation
           may cause significant error
 Rotational temperatures (Kelvin)      0.02854     0.01788     0.01120
 Rotational constants (GHZ):           0.59468     0.37265     0.23341
 Zero-point vibrational energy      20617.7 (Joules/Mol)
                                    4.92774 (Kcal/Mol)
 Warning -- explicit consideration of  12 degrees of freedom as
           vibrations may cause significant error
 Vibrational temperatures:     77.80   161.33   163.92   204.26   220.33
          (Kelvin)            331.28   440.01   493.10   613.98   675.95
                              767.79   809.71

 Zero-point correction=                           0.007853 (Hartree/Particle)
 Thermal correction to Energy=                    0.016438
 Thermal correction to Enthalpy=                  0.017382
 Thermal correction to Gibbs Free Energy=        -0.033802
 Sum of electronic and zero-point Energies=          -2523.917171
 Sum of electronic and thermal Energies=             -2523.908586
 Sum of electronic and thermal Enthalpies=           -2523.907642
 Sum of electronic and thermal Free Energies=        -2523.958826

                     E (Thermal)             CV                S
                      KCal/Mol        Cal/Mol-Kelvin    Cal/Mol-Kelvin
 Total                   10.315             25.689            107.725
 Electronic               0.000              0.000              6.315
 Translational            0.889              2.981             44.642
 Rotational               0.889              2.981             33.096
 Vibrational              8.537             19.728             23.671
 Vibration     1          0.596              1.976              4.663
 Vibration     2          0.607              1.939              3.232
 Vibration     3          0.607              1.938              3.201
 Vibration     4          0.615              1.911              2.777
 Vibration     5          0.619              1.899              2.633
 Vibration     6          0.652              1.795              1.877
 Vibration     7          0.696              1.663              1.385
 Vibration     8          0.722              1.590              1.199
 Vibration     9          0.788              1.412              0.869
 Vibration    10          0.827              1.317              0.738
 Vibration    11          0.889              1.176              0.579
 Vibration    12          0.919              1.112              0.518

 Optimization completed.
    -- Stationary point found.
 Normal termination of Gaussian DV at Thu Jun 12 19:44:22 2025.
