 ----------------------
 #p B3LYP/6-31G(d) freq
 ----------------------

 ---------
 H2O anion
 ---------
 Symbolic Z-matrix:
 Charge =    -1 Multiplicity =     2

                         Standard orientation:
 ---------------------------------------------------------------------
 Center     Atomic      Atomic             Coordinates (Angstroms)
 Number     Number       Type             X           Y           Z
 ---------------------------------------------------------------------
      1          8           0       -0.000000    0.000000    0.117790
      2          1           0        0.000000    0.757160   -0.471160
      3          1           0       -0.000000   -0.757160   -0.471160
 ---------------------------------------------------------------------

 SCF Done:  E(UB3LYP) =  -76.2416851956     A.U. after   11 cycles

 Isotropic polarizability for W=    0.000000       18.96 Bohr**3.
 End of Minotr FD prop file    721 does not exist.

 The electronic state is 2-A1.
 Alpha  occ. eigenvalues --      -18.78304      -0.66670      -0.18778      -0.05953       0.03095
 Alpha  occ. eigenvalues --        0.27238
 Alpha virt. eigenvalues --        0.40981       1.09451       1.16515       1.19455       1.20318
 Alpha virt. eigenvalues --        1.36788       1.50541       2.05273       2.06943       2.10053
 Alpha virt. eigenvalues --        2.61591       2.91661       3.86806
  Beta  occ. eigenvalues --      -18.77435      -0.64540      -0.17588      -0.04445       0.03937
  Beta virt. eigenvalues --        0.37371       0.45644       1.10529       1.17811       1.20360
  Beta virt. eigenvalues --        1.22779       1.38065       1.51883       2.06056       2.07013
  Beta virt. eigenvalues --        2.10773       2.62275       2.92928       3.87842

 Mulliken charges and spin densities:
               1          2
     1  O   -0.605435  -0.154070
     2  H   -0.197283   0.577035
     3  H   -0.197283   0.577035
 Sum of Mulliken charges=  -1.00000   1.00000

 Dipole moment (field-independent basis, Debye):
    X=              0.0000    Y=             -0.0000    Z=              0.8028  Tot=              0.8028
 Quadrupole moment (field-independent basis, Debye-Ang):
   XX=             -9.9016   YY=            -11.4032   ZZ=            -11.1461
   XY=             -0.0000   XZ=             -0.0000   YZ=              0.0000

                      1                      2                      3
                     A1                     B2                     A1
 Frequencies --    805.6828              3092.7766              3622.1669
 Red. masses --      1.0726                 1.0816                 1.0547
 Frc consts  --      0.4102                 6.0956                 8.1533
 IR Inten    --    160.3550              4210.1535                 4.5308

 - Thermochemistry -
 -------------------
 Temperature 298.150 Kelvin.  Pressure 1.00000 Atm.
 Atom     1 has atomic number  8 and mass  15.99491

 Molecular mass:    18.01056 amu.
 Principal axes and moments of inertia in atomic units:
                                 1                 2                 3
     Eigenvalues --            2.217299          4.126560          6.343860
           X                  -0.000000          0.000000          1.000000
           Y                   1.000000          0.000000          0.000000
           Z                  -0.000000          1.000000         -0.000000
 This molecule is an asymmetric top.
 Rotational symmetry number  2.
 Rotational temperatures (Kelvin)     39.06280    20.98938    13.65319
 Rotational constants (GHZ):         813.93666   437.34759   284.48631
 Zero-point vibrational energy      44983.3 (Joules/Mol)
                                   10.75128 (Kcal/Mol)
 Vibrational temperatures:   1159.20  4449.82  5211.49
          (Kelvin)

 Zero-point correction=                           0.017133 (Hartree/Particle)
 Thermal correction to Energy=                    0.020043
 Thermal correction to Enthalpy=                  0.020987
 Thermal correction to Gibbs Free Energy=        -0.001178
 Sum of electronic and zero-point Energies=            -76.224552
 Sum of electronic and thermal Energies=               -76.221643
 Sum of electronic and thermal Enthalpies=             -76.220698
 Sum of electronic and thermal Free Energies=          -76.242863

                     E (Thermal)             CV                S
                      KCal/Mol        Cal/Mol-Kelvin    Cal/Mol-Kelvin
 Total                   12.577              6.603             46.649
 Electronic               0.000              0.000              1.377
 Translational            0.889              2.981             34.608
 Rotational               0.889              2.981             10.461
 Vibrational             10.799              0.642              0.203

 Normal termination of Gaussian DV at Mon Jul 28 13:05:18 2025.
