 -------------------
 #p B3LYP/6-31G freq
 -------------------

 -----------
 H2O neutral
 -----------
 Symbolic Z-matrix:
 Charge =     0 Multiplicity =     1

                         Standard orientation:
 ---------------------------------------------------------------------
 Center     Atomic      Atomic             Coordinates (Angstroms)
 Number     Number       Type             X           Y           Z
 ---------------------------------------------------------------------
      1          8           0       -0.000000    0.000000    0.117790
      2          1           0        0.000000    0.757160   -0.471160
      3          1           0       -0.000000   -0.757160   -0.471160
 ---------------------------------------------------------------------

 SCF Done:  E(RB3LYP) =  -76.3850009384     A.U. after    8 cycles

 Isotropic polarizability for W=    0.000000        4.44 Bohr**3.
 End of Minotr FD prop file    721 does not exist.

 The electronic state is 1-A1.
 Alpha  occ. eigenvalues --      -19.13354      -1.01865      -0.52971      -0.35696      -0.29233
 Alpha virt. eigenvalues --        0.05692       0.14692       0.80995       0.87739       0.88912
 Alpha virt. eigenvalues --        0.95834       1.06844       1.42364

 Mulliken charges:
               1
     1  O   -0.705958
     2  H    0.352979
     3  H    0.352979
 Sum of Mulliken charges=  -0.00000

 Dipole moment (field-independent basis, Debye):
    X=             -0.0000    Y=              0.0000    Z=             -2.4637  Tot=              2.4637
 Quadrupole moment (field-independent basis, Debye-Ang):
   XX=             -7.1647   YY=             -4.3240   ZZ=             -6.1463
   XY=              0.0000   XZ=              0.0000   YZ=              0.0000

                      1                      2                      3
                     A1                     A1                     B2
 Frequencies --   1618.3906              3858.4227              3987.7840
 Red. masses --      1.0881                 1.0402                 1.0816
 Frc consts  --      1.6791                 9.1237                10.1340
 IR Inten    --     61.5862                 3.9373                 4.7435

 - Thermochemistry -
 -------------------
 Temperature 298.150 Kelvin.  Pressure 1.00000 Atm.
 Atom     1 has atomic number  8 and mass  15.99491

 Molecular mass:    18.01056 amu.
 Principal axes and moments of inertia in atomic units:
                                 1                 2                 3
     Eigenvalues --            2.217299          4.126560          6.343860
           X                  -0.000000          0.000000          1.000000
           Y                   1.000000          0.000000          0.000000
           Z                  -0.000000          1.000000         -0.000000
 This molecule is an asymmetric top.
 Rotational symmetry number  2.
 Rotational temperatures (Kelvin)     39.06280    20.98938    13.65319
 Rotational constants (GHZ):         813.93666   437.34759   284.48631
 Zero-point vibrational energy      56610.9 (Joules/Mol)
                                   13.53032 (Kcal/Mol)
 Vibrational temperatures:   2328.50  5551.41  5737.53
          (Kelvin)

 Zero-point correction=                           0.021562 (Hartree/Particle)
 Thermal correction to Energy=                    0.024397
 Thermal correction to Enthalpy=                  0.025342
 Thermal correction to Gibbs Free Energy=         0.003925
 Sum of electronic and zero-point Energies=            -76.363439
 Sum of electronic and thermal Energies=               -76.360603
 Sum of electronic and thermal Enthalpies=             -76.359659
 Sum of electronic and thermal Free Energies=          -76.381076

                     E (Thermal)             CV                S
                      KCal/Mol        Cal/Mol-Kelvin    Cal/Mol-Kelvin
 Total                   15.310              6.011             45.076
 Electronic               0.000              0.000              0.000
 Translational            0.889              2.981             34.608
 Rotational               0.889              2.981             10.461
 Vibrational             13.532              0.049              0.007

 Normal termination of Gaussian DV at Mon Jul 28 13:05:17 2025.
