 -----------------------
 #p B3LYP/6-31G opt freq
 -----------------------

 ----------
 CH2O anion
 ----------
 Symbolic Z-matrix:
 Charge =    -1 Multiplicity =     2

 SCF Done:  E(UB3LYP) =  -114.408735299     A.U. after   14 cycles
 Optimization completed.
    -- Stationary point found.
 Normal termination of Gaussian DV at Wed Jul 30 07:39:55 2025.

 -----------------------------------------------------------------
 #P Geom=AllCheck Guess=TCheck SCRF=Check GenChk UB3LYP/6-31G Freq
 -----------------------------------------------------------------

 Structure from the checkpoint file:  "ch2o_anion.chk"
 ----------
 CH2O anion
 ----------
 Charge =    -1 Multiplicity =     2

                         Standard orientation:
 ---------------------------------------------------------------------
 Center     Atomic      Atomic             Coordinates (Angstroms)
 Number     Number       Type             X           Y           Z
 ---------------------------------------------------------------------
      1          6           0       -0.591511   -0.000007   -0.085170
      2          8           0        0.738753   -0.000012    0.019603
      3          1           0       -1.180592   -0.923307    0.177114
      4          1           0       -1.180365    0.923444    0.177086
 ---------------------------------------------------------------------

 SCF Done:  E(UB3LYP) =  -114.408735299     A.U. after    1 cycles

 Isotropic polarizability for W=    0.000000       16.33 Bohr**3.
 End of Minotr FD prop file    721 does not exist.

 The electronic state is 2-A.
 Alpha  occ. eigenvalues --      -18.80162      -9.92454      -0.66795      -0.32981      -0.15244
 Alpha  occ. eigenvalues --       -0.09703      -0.05602       0.05799       0.14990
 Alpha virt. eigenvalues --        0.35556       0.42971       0.48692       0.81098       0.88876
 Alpha virt. eigenvalues --        0.89888       1.02620       1.13400       1.16171       1.26189
 Alpha virt. eigenvalues --        1.26323       1.35183       1.88577
  Beta  occ. eigenvalues --      -18.79072      -9.91569      -0.64353      -0.30581      -0.14430
  Beta  occ. eigenvalues --       -0.08125       0.00863       0.06820
  Beta virt. eigenvalues --        0.28516       0.36507       0.43804       0.49982       0.85610
  Beta virt. eigenvalues --        0.90083       0.90526       1.03928       1.13904       1.17440
  Beta virt. eigenvalues --        1.27208       1.30241       1.35953       1.90058

 Mulliken charges and spin densities:
               1          2
     1  C   -0.143846   0.657415
     2  O   -0.678499   0.381894
     3  H   -0.088828  -0.019650
     4  H   -0.088827  -0.019658
 Sum of Mulliken charges=  -1.00000   1.00000

 Dipole moment (field-independent basis, Debye):
    X=             -0.8367    Y=              0.0000    Z=              0.4131  Tot=              0.9332
 Quadrupole moment (field-independent basis, Debye-Ang):
   XX=            -18.5219   YY=            -15.1349   ZZ=            -15.2919
   XY=              0.0001   XZ=             -0.3735   YZ=              0.0000

                      1                      2                      3
                      A                      A                      A
 Frequencies --    689.8634              1176.3673              1293.6786
 Red. masses --      1.3451                 1.2734                 5.5530
 Frc consts  --      0.3772                 1.0383                 5.4756
 IR Inten    --     32.3565                 3.8838                50.0040

                      4                      5                      6
                      A                      A                      A
 Frequencies --   1541.5227              2683.0782              2688.6320
 Red. masses --      1.1785                 1.1127                 1.0343
 Frc consts  --      1.6500                 4.7195                 4.4051
 IR Inten    --     57.6645               741.1422               255.8626

 - Thermochemistry -
 -------------------
 Temperature 298.150 Kelvin.  Pressure 1.00000 Atm.
 Atom     1 has atomic number  6 and mass  12.00000

 Molecular mass:    30.01056 amu.
 Principal axes and moments of inertia in atomic units:
                                 1                 2                 3
     Eigenvalues --            6.635756         56.090144         61.728775
           X                   0.999589          0.000003         -0.028673
           Y                  -0.000003          1.000000         -0.000001
           Z                   0.028673          0.000001          0.999589
 This molecule is an asymmetric top.
 Rotational symmetry number  1.
 Rotational temperatures (Kelvin)     13.05261     1.54419     1.40314
 Rotational constants (GHZ):         271.97221    32.17573    29.23663
 Zero-point vibrational energy      60250.8 (Joules/Mol)
                                   14.40028 (Kcal/Mol)
 Vibrational temperatures:    992.56  1692.53  1861.31  2217.91  3860.35
          (Kelvin)           3868.34

 Zero-point correction=                           0.022948 (Hartree/Particle)
 Thermal correction to Energy=                    0.025932
 Thermal correction to Enthalpy=                  0.026876
 Thermal correction to Gibbs Free Energy=         0.000416
 Sum of electronic and zero-point Energies=           -114.385787
 Sum of electronic and thermal Energies=              -114.382804
 Sum of electronic and thermal Enthalpies=            -114.381859
 Sum of electronic and thermal Free Energies=         -114.408320

                     E (Thermal)             CV                S
                      KCal/Mol        Cal/Mol-Kelvin    Cal/Mol-Kelvin
 Total                   16.272              7.249             55.690
 Electronic               0.000              0.000              1.377
 Translational            0.889              2.981             36.130
 Rotational               0.889              2.981             17.781
 Vibrational             14.495              1.287              0.402

 Optimization completed.
    -- Stationary point found.
 Normal termination of Gaussian DV at Wed Jul 30 07:40:03 2025.
