 ---------------------
 #p uB3LYP/STO-3G freq
 ---------------------

 -----------
 H2O neutral
 -----------
 Symbolic Z-matrix:
 Charge =     0 Multiplicity =     1

                         Standard orientation:
 ---------------------------------------------------------------------
 Center     Atomic      Atomic             Coordinates (Angstroms)
 Number     Number       Type             X           Y           Z
 ---------------------------------------------------------------------
      1          8           0       -0.000000    0.000000    0.117790
      2          1           0        0.000000    0.757160   -0.471160
      3          1           0       -0.000000   -0.757160   -0.471160
 ---------------------------------------------------------------------

 SCF Done:  E(UB3LYP) =  -75.3130064120     A.U. after    9 cycles

 Isotropic polarizability for W=    0.000000        2.44 Bohr**3.
 End of Minotr FD prop file    721 does not exist.

 The electronic state is 1-A1.
 Alpha  occ. eigenvalues --      -18.83568      -0.93503      -0.44258      -0.23125      -0.14426
 Alpha virt. eigenvalues --        0.35435       0.46942
  Beta  occ. eigenvalues --      -18.83568      -0.93503      -0.44258      -0.23125      -0.14426
  Beta virt. eigenvalues --        0.35435       0.46942

 Mulliken charges and spin densities:
               1          2
     1  O   -0.366370   0.000000
     2  H    0.183185   0.000000
     3  H    0.183185   0.000000
 Sum of Mulliken charges=   0.00000   0.00000

 Dipole moment (field-independent basis, Debye):
    X=             -0.0000    Y=             -0.0000    Z=             -1.6773  Tot=              1.6773
 Quadrupole moment (field-independent basis, Debye-Ang):
   XX=             -6.1001   YY=             -4.3832   ZZ=             -5.3879
   XY=              0.0000   XZ=              0.0000   YZ=              0.0000

                      1                      2                      3
                     A1                     A1                     B2
 Frequencies --   1805.1484              4334.3273              4655.8414
 Red. masses --      1.0821                 1.0457                 1.0816
 Frc consts  --      2.0775                11.5747                13.8138
 IR Inten    --      6.7747                60.6920                34.6013

 - Thermochemistry -
 -------------------
 Temperature 298.150 Kelvin.  Pressure 1.00000 Atm.
 Atom     1 has atomic number  8 and mass  15.99491

 Molecular mass:    18.01056 amu.
 Principal axes and moments of inertia in atomic units:
                                 1                 2                 3
     Eigenvalues --            2.217299          4.126560          6.343860
           X                  -0.000000          0.000000          1.000000
           Y                   1.000000          0.000000          0.000000
           Z                  -0.000000          1.000000         -0.000000
 This molecule is an asymmetric top.
 Rotational symmetry number  2.
 Rotational temperatures (Kelvin)     39.06280    20.98938    13.65319
 Rotational constants (GHZ):         813.93666   437.34759   284.48631
 Zero-point vibrational energy      64570.3 (Joules/Mol)
                                   15.43268 (Kcal/Mol)
 Vibrational temperatures:   2597.21  6236.13  6698.72
          (Kelvin)

 Zero-point correction=                           0.024594 (Hartree/Particle)
 Thermal correction to Energy=                    0.027427
 Thermal correction to Enthalpy=                  0.028372
 Thermal correction to Gibbs Free Energy=         0.006956
 Sum of electronic and zero-point Energies=            -75.288413
 Sum of electronic and thermal Energies=               -75.285579
 Sum of electronic and thermal Enthalpies=             -75.284635
 Sum of electronic and thermal Free Energies=          -75.306050

                     E (Thermal)             CV                S
                      KCal/Mol        Cal/Mol-Kelvin    Cal/Mol-Kelvin
 Total                   17.211              5.986             45.072
 Electronic               0.000              0.000              0.000
 Translational            0.889              2.981             34.608
 Rotational               0.889              2.981             10.461
 Vibrational             15.434              0.025              0.003

 Normal termination of Gaussian DV at Wed Jul 30 07:45:22 2025.
